# vtk DataFile Version 3.0
Finite Element Results
ASCII
DATASET UNSTRUCTURED_GRID
POINTS 121 float
0.0 0.0 0
0.1 0.0 0
0.2 0.0 0
0.3 0.0 0
0.4 0.0 0
0.5 0.0 0
0.6 0.0 0
0.7 0.0 0
0.8 0.0 0
0.9 0.0 0
1.0 0.0 0
0.0 0.05 0
0.1 0.05 0
0.2 0.05 0
0.3 0.05 0
0.4 0.05 0
0.5 0.05 0
0.6 0.05 0
0.7 0.05 0
0.8 0.05 0
0.9 0.05 0
1.0 0.05 0
0.0 0.1 0
0.1 0.1 0
0.2 0.1 0
0.3 0.1 0
0.4 0.1 0
0.5 0.1 0
0.6 0.1 0
0.7 0.1 0
0.8 0.1 0
0.9 0.1 0
1.0 0.1 0
0.0 0.15 0
0.1 0.15 0
0.2 0.15 0
0.3 0.15 0
0.4 0.15 0
0.5 0.15 0
0.6 0.15 0
0.7 0.15 0
0.8 0.15 0
0.9 0.15 0
1.0 0.15 0
0.0 0.2 0
0.1 0.2 0
0.2 0.2 0
0.3 0.2 0
0.4 0.2 0
0.5 0.2 0
0.6 0.2 0
0.7 0.2 0
0.8 0.2 0
0.9 0.2 0
1.0 0.2 0
0.0 0.25 0
0.1 0.25 0
0.2 0.25 0
0.3 0.25 0
0.4 0.25 0
0.5 0.25 0
0.6 0.25 0
0.7 0.25 0
0.8 0.25 0
0.9 0.25 0
1.0 0.25 0
0.0 0.3 0
0.1 0.3 0
0.2 0.3 0
0.3 0.3 0
0.4 0.3 0
0.5 0.3 0
0.6 0.3 0
0.7 0.3 0
0.8 0.3 0
0.9 0.3 0
1.0 0.3 0
0.0 0.35 0
0.1 0.35 0
0.2 0.35 0
0.3 0.35 0
0.4 0.35 0
0.5 0.35 0
0.6 0.35 0
0.7 0.35 0
0.8 0.35 0
0.9 0.35 0
1.0 0.35 0
0.0 0.4 0
0.1 0.4 0
0.2 0.4 0
0.3 0.4 0
0.4 0.4 0
0.5 0.4 0
0.6 0.4 0
0.7 0.4 0
0.8 0.4 0
0.9 0.4 0
1.0 0.4 0
0.0 0.45 0
0.1 0.45 0
0.2 0.45 0
0.3 0.45 0
0.4 0.45 0
0.5 0.45 0
0.6 0.45 0
0.7 0.45 0
0.8 0.45 0
0.9 0.45 0
1.0 0.45 0
0.0 0.5 0
0.1 0.5 0
0.2 0.5 0
0.3 0.5 0
0.4 0.5 0
0.5 0.5 0
0.6 0.5 0
0.7 0.5 0
0.8 0.5 0
0.9 0.5 0
1.0 0.5 0
CELLS 200 800
3 0 1 12
3 0 12 11
3 1 2 13
3 1 13 12
3 2 3 14
3 2 14 13
3 3 4 15
3 3 15 14
3 4 5 16
3 4 16 15
3 5 6 17
3 5 17 16
3 6 7 18
3 6 18 17
3 7 8 19
3 7 19 18
3 8 9 20
3 8 20 19
3 9 10 21
3 9 21 20
3 11 12 23
3 11 23 22
3 12 13 24
3 12 24 23
3 13 14 25
3 13 25 24
3 14 15 26
3 14 26 25
3 15 16 27
3 15 27 26
3 16 17 28
3 16 28 27
3 17 18 29
3 17 29 28
3 18 19 30
3 18 30 29
3 19 20 31
3 19 31 30
3 20 21 32
3 20 32 31
3 22 23 34
3 22 34 33
3 23 24 35
3 23 35 34
3 24 25 36
3 24 36 35
3 25 26 37
3 25 37 36
3 26 27 38
3 26 38 37
3 27 28 39
3 27 39 38
3 28 29 40
3 28 40 39
3 29 30 41
3 29 41 40
3 30 31 42
3 30 42 41
3 31 32 43
3 31 43 42
3 33 34 45
3 33 45 44
3 34 35 46
3 34 46 45
3 35 36 47
3 35 47 46
3 36 37 48
3 36 48 47
3 37 38 49
3 37 49 48
3 38 39 50
3 38 50 49
3 39 40 51
3 39 51 50
3 40 41 52
3 40 52 51
3 41 42 53
3 41 53 52
3 42 43 54
3 42 54 53
3 44 45 56
3 44 56 55
3 45 46 57
3 45 57 56
3 46 47 58
3 46 58 57
3 47 48 59
3 47 59 58
3 48 49 60
3 48 60 59
3 49 50 61
3 49 61 60
3 50 51 62
3 50 62 61
3 51 52 63
3 51 63 62
3 52 53 64
3 52 64 63
3 53 54 65
3 53 65 64
3 55 56 67
3 55 67 66
3 56 57 68
3 56 68 67
3 57 58 69
3 57 69 68
3 58 59 70
3 58 70 69
3 59 60 71
3 59 71 70
3 60 61 72
3 60 72 71
3 61 62 73
3 61 73 72
3 62 63 74
3 62 74 73
3 63 64 75
3 63 75 74
3 64 65 76
3 64 76 75
3 66 67 78
3 66 78 77
3 67 68 79
3 67 79 78
3 68 69 80
3 68 80 79
3 69 70 81
3 69 81 80
3 70 71 82
3 70 82 81
3 71 72 83
3 71 83 82
3 72 73 84
3 72 84 83
3 73 74 85
3 73 85 84
3 74 75 86
3 74 86 85
3 75 76 87
3 75 87 86
3 77 78 89
3 77 89 88
3 78 79 90
3 78 90 89
3 79 80 91
3 79 91 90
3 80 81 92
3 80 92 91
3 81 82 93
3 81 93 92
3 82 83 94
3 82 94 93
3 83 84 95
3 83 95 94
3 84 85 96
3 84 96 95
3 85 86 97
3 85 97 96
3 86 87 98
3 86 98 97
3 88 89 100
3 88 100 99
3 89 90 101
3 89 101 100
3 90 91 102
3 90 102 101
3 91 92 103
3 91 103 102
3 92 93 104
3 92 104 103
3 93 94 105
3 93 105 104
3 94 95 106
3 94 106 105
3 95 96 107
3 95 107 106
3 96 97 108
3 96 108 107
3 97 98 109
3 97 109 108
3 99 100 111
3 99 111 110
3 100 101 112
3 100 112 111
3 101 102 113
3 101 113 112
3 102 103 114
3 102 114 113
3 103 104 115
3 103 115 114
3 104 105 116
3 104 116 115
3 105 106 117
3 105 117 116
3 106 107 118
3 106 118 117
3 107 108 119
3 107 119 118
3 108 109 120
3 108 120 119
CELL_TYPES 200
5
5
5
5
5
5
5
5
5
5
5
5
5
5
5
5
5
5
5
5
5
5
5
5
5
5
5
5
5
5
5
5
5
5
5
5
5
5
5
5
5
5
5
5
5
5
5
5
5
5
5
5
5
5
5
5
5
5
5
5
5
5
5
5
5
5
5
5
5
5
5
5
5
5
5
5
5
5
5
5
5
5
5
5
5
5
5
5
5
5
5
5
5
5
5
5
5
5
5
5
5
5
5
5
5
5
5
5
5
5
5
5
5
5
5
5
5
5
5
5
5
5
5
5
5
5
5
5
5
5
5
5
5
5
5
5
5
5
5
5
5
5
5
5
5
5
5
5
5
5
5
5
5
5
5
5
5
5
5
5
5
5
5
5
5
5
5
5
5
5
5
5
5
5
5
5
5
5
5
5
5
5
5
5
5
5
5
5
5
5
5
5
5
5
5
5
5
5
5
5
POINT_DATA 121
VECTORS displacement float
0.0 0.0 0
1.1174463518676503e-07 8.079827476931899e-08 0
2.035383038310607e-07 1.727006732375926e-07 0
2.8578463176803413e-07 2.9535014402460647e-07 0
3.580704394973715e-07 4.4819566346291287e-07 0
4.1972429455327797e-07 6.277433080612959e-07 0
4.7039055008201127e-07 8.297357076782992e-07 0
5.099800100362198e-07 1.0497298089266407e-06 0
5.38726933578707e-07 1.283500223595992e-06 0
5.574327572594539e-07 1.52818366641299e-06 0
5.679823725742712e-07 1.7871016430277864e-06 0
0.0 0.0 0
7.570519681536479e-08 6.120373181629906e-08 0
1.5288449895814478e-07 1.556546389635046e-07 0
2.2001520641750136e-07 2.802125883401945e-07 0
2.783128348495009e-07 4.3506355639457046e-07 0
3.278022667849631e-07 6.167084696862723e-07 0
3.683825998593203e-07 8.208514157154464e-07 0
3.9997032518947324e-07 1.0430173938761231e-06 0
4.225496802326387e-07 1.2788872734213968e-06 0
4.364337709276464e-07 1.525101548500783e-06 0
4.4384307639392715e-07 1.781886681329904e-06 0
0.0 0.0 0
5.1817830250000166e-08 4.935103913148979e-08 0
1.0838333912983797e-07 1.4188942688367699e-07 0
1.5971299191105828e-07 2.681226680668532e-07 0
2.039422750476038e-07 4.2468393081930975e-07 0
2.412884118242148e-07 6.080355988365367e-07 0
2.718069367824145e-07 8.13900938085832e-07 0
2.9544201144820467e-07 1.0378143612429677e-06 0
3.1208899902435956e-07 1.275353888508924e-06 0
3.219573345371577e-07 1.5224955533793457e-06 0
3.272937422609682e-07 1.7763784733601868e-06 0
0.0 0.0 0
3.2668736825160996e-08 4.2241773538689984e-08 0
6.928348110683155e-08 1.3240486686907305e-07 0
1.0377733421334606e-07 2.592387430968515e-07 0
1.3372288970161365e-07 4.170787406513974e-07 0
1.5888437138662023e-07 6.017146397450009e-07 0
1.7937001716492473e-07 8.088561775775006e-07 0
1.9517565050455312e-07 1.0340620483888228e-06 0
2.0620081633908693e-07 1.2728183281076228e-06 0
2.1257284701454637e-07 1.5204644605092518e-06 0
2.1600905526887684e-07 1.7716175714150362e-06 0
0.0 0.0 0
1.5590257699621635e-08 3.846628417173079e-08 0
3.351642062474668e-08 1.2690124977692057e-07 0
5.099944480474212e-08 2.537471920062471e-07 0
6.63810577123835e-08 4.1230174191916344e-07 0
7.92700343902457e-08 5.977525241644272e-07 0
8.972855610321067e-08 8.05692475683981e-07 0
9.780740718825766e-08 1.0317014316370052e-06 0
1.0344835261293133e-07 1.2712209300049813e-06 0
1.0663255508438677e-07 1.519147548841883e-06 0
1.0816286203913441e-07 1.7683956306581193e-06 0
0.0 0.0 0
-6.748554929776257e-10 3.736976347813982e-08 0
-6.599105865589209e-10 1.2500856564187991e-07 0
-7.392025949832615e-11 2.516578630063343e-07 0
5.826347933534518e-10 4.104150837480169e-07 0
1.0911539768120828e-09 5.96171549844281e-07 0
1.4921219288101192e-09 8.044025246303256e-07 0
1.8774906025696367e-09 1.0306965627556796e-06 0
2.24881324108802e-09 1.2705247211375045e-06 0
2.407728217912272e-09 1.5186428824928358e-06 0
2.0487044023292024e-09 1.767181187495295e-06 0
0.0 0.0 0
-1.6945254830810614e-08 3.875714300368629e-08 0
-3.4682653433202427e-08 1.2653520313423647e-07 0
-5.093784428114543e-08 2.529354589677826e-07 0
-6.508220450987269e-08 4.1145542829008014e-07 0
-7.703954080743077e-08 5.97002739989442e-07 0
-8.675603984266012e-08 8.050015056418261e-07 0
-9.411636230852755e-08 1.0310451236455345e-06 0
-9.904441207992008e-08 1.2707101624250223e-06 0
-1.0186911637430847e-07 1.5189669320115399e-06 0
-1.0401171901351415e-07 1.7681220371661335e-06 0
0.0 0.0 0
-3.3967916174880067e-08 4.279524682955433e-08 0
-6.988733837198527e-08 1.3149854792475008e-07 0
-1.0308462486199611e-07 2.575755622826808e-07 0
-1.3206573049053966e-07 4.154419807637103e-07 0
-1.5653185287412014e-07 6.002746090627257e-07 0
-1.7643088000702867e-07 8.075239445966661e-07 0
-1.9166304090889896e-07 1.0327838099655654e-06 0
-2.020786702599614e-07 1.2717786081972722e-06 0
-2.0798551958175263e-07 1.5200394662927743e-06 0
-2.1169535184714443e-07 1.771044314683283e-06 0
0.0 0.0 0
-5.267458418982804e-08 5.000636948864844e-08 0
-1.0770347221518636e-07 1.400980858624969e-07 0
-1.5803090204008351e-07 2.656171875129191e-07 0
-2.0183419640170453e-07 4.223833888190882e-07 0
-2.3879724857045066e-07 6.060044953052195e-07 0
-2.6891906865888534e-07 8.120115146959916e-07 0
-2.921776478061808e-07 1.0359885550398612e-06 0
-3.084253408902459e-07 1.273772647010302e-06 0
-3.17734355606254e-07 1.5216913135329943e-06 0
-3.227037915325668e-07 1.7754281420428503e-06 0
0.0 0.0 0
-7.460941198367005e-08 6.13027391820117e-08 0
-1.4984315414006775e-07 1.5264441391273892e-07 0
-2.1733409687731486e-07 2.7711073573455125e-07 0
-2.758368565181536e-07 4.322721283542726e-07 0
-3.252247383127236e-07 6.141918236736945e-07 0
-3.655656696833422e-07 8.184919904384224e-07 0
-3.9694973585774146e-07 1.0407562694040266e-06 0
-4.1944645937027916e-07 1.2768199157578202e-06 0
-4.3287532780731656e-07 1.5237142553860963e-06 0
-4.3884799296641775e-07 1.7803452830456868e-06 0
0.0 0.0 0
-1.0312403884697775e-07 7.79509148976128e-08 0
-1.984086411535516e-07 1.6939796068794053e-07 0
-2.825050134559671e-07 2.9205569310782716e-07 0
-3.554501797528262e-07 4.4507476400746e-07 0
-4.171597356088774e-07 6.248155000177109e-07 0
-4.676715745948274e-07 8.269633594418258e-07 0
-5.071711766288394e-07 1.0471297659780117e-06 0
-5.360545404445377e-07 1.2811828583347241e-06 0
-5.549344292074566e-07 1.5260417866247076e-06 0
-5.623876164169046e-07 1.784327463308127e-06 0
CELL_DATA 200
VECTORS stress float
255632.75972935843 23427.039615311543 6707.229117023501
203821.6796572408 87352.14842453178 47079.79276324957
207799.79386921242 14129.43283112482 -7234.777761118464
162572.2495490705 -16456.03617624048 17209.253813049578
186499.5968286012 13389.69366649557 -6837.984412510811
141399.5150839205 -14327.829505428803 17884.876281424047
164310.77044274868 12695.355219638406 -5130.530556954616
122022.33022013982 -14243.420594273646 17932.397605436956
140526.13378224807 11720.702810735567 -3304.931424860368
102935.91376365896 -13608.154785685741 17022.848887205084
115906.93496032884 10622.568674571648 -1556.5390676219606
83789.72958203572 -12594.898989355066 15614.530835820482
91096.81716896924 9536.372561341475 -19.43726511246743
64541.66237607167 -11391.119575823821 13961.597963302554
66750.29241493216 8330.564519207117 1089.1599606894792
45300.381785935766 -10090.671174244631 12192.699642130972
43249.25232424051 4987.623081532577 2065.7462305183503
26734.97401048628 -8818.857654127169 10661.360084657128
16368.283140490728 -15907.929614881166 8184.141570246617
12835.550047413202 -8046.820751392944 11374.738361356163
176469.31247011293 23529.958321233382 10329.998782299881
139509.54019057885 59789.802938819514 37962.33703420694
176024.5512950837 14932.667897790292 4191.221062784741
124939.38444352346 1445.7034526950292 34433.579789372976
152836.7010107462 12358.937657164242 3041.169449794895
106429.34286740418 -14893.849999786711 28639.169832264764
133002.1687139691 11376.202557994622 4699.883329526772
91179.0213747931 -14065.782186815683 27659.102323410487
113226.45867770989 10403.1166804332 6628.617844508642
76594.30769300336 -12798.595022419364 26623.498247093747
93215.17726754828 9397.812276839773 8455.092042715403
62150.940914282895 -11486.390932463883 25259.714362343257
73036.87604393094 8431.045649180787 10084.11570457889
47593.328618458596 -10154.408572769229 23663.151067755534
52636.605034699176 7027.183072870085 11498.859099803713
32811.81366459123 -8808.266799107527 21909.92247212373
31366.408655914274 1987.8231852056679 13278.001502446674
18414.630060457606 -7639.377630375838 20169.463022659576
7236.880795901543 -21110.382338254036 18220.35699190285
8353.416501412428 -7874.887738152199 19176.95900097139
123103.54299685311 21509.1428201261 8502.193892887992
87954.28969327074 37694.695582830325 32493.671302965024
130404.30588085271 14197.186806463329 11029.747245693025
82172.15851613185 3967.12089981702 39896.08111031278
117693.85135709679 11390.003142829572 11047.63500039483
70980.6184488407 -11270.10780725611 37410.891699294225
101528.3983341799 10082.764051754075 12401.916721558691
60121.28287367537 -13283.954778636773 35360.52403057519
85960.4609296608 9055.762529781248 14264.29751628159
50192.01083753362 -11918.544875380128 33997.790398215875
70523.50307314884 8049.587438223368 16147.307380373695
40566.832226708044 -10398.649771484386 32564.19700818574
54973.708721933974 7066.478335339606 17985.154463245057
30911.87258461274 -8926.825628292332 31024.639053617077
38967.51869190996 5555.044931302447 19817.816446267367
21023.9548552386 -7483.41617895854 29402.736205404133
21881.457781226203 449.88705141793383 21825.145582880996
11304.173743304944 -6300.674332385902 27592.12793360643
3380.5546999927874 -19478.23194146567 24087.342592605717
4564.192431697452 -6971.798098380236 24910.873240676206
79241.62209761825 17365.1378596412 6219.088558396131
41973.76989027516 17988.75852440364 29589.44877108086
85877.50113582652 12612.920345771252 14329.978456641475
39550.07777596772 354.4760075052655 41752.31251426996
80195.25424300847 10230.709045801888 16367.76691154517
34369.024969178456 -9462.140868506502 42547.55396840035
69598.80477128124 8830.262982443706 17812.56393304529
28739.223967470614 -11821.875358000054 40768.284642871535
58599.105870942505 7698.010202573733 19544.01891746927
23677.247354005744 -10850.404482102687 39051.628654970096
47852.810230256815 6601.965570129535 21429.703962999483
19014.214430220345 -9266.943272021477 37470.212732753316
37106.050360376306 5526.255848489552 23437.98736103357
14449.902108775512 -7713.566481933848 35943.102226981144
25996.834951558383 4119.970712454393 25577.962770355112
9739.583444366055 -6202.229972657898 34448.469876711395
14116.439996134235 261.2802575495705 27511.95986615306
4886.549396245972 -4927.294525537305 32632.0696431974
1816.081978606313 -13384.055822259998 27277.479797757896
1081.0302395412941 -5325.323923847204 28744.228621974722
39443.337571058495 12084.416446231422 4566.198206008543
-1816.9185986013895 -778.6793994005957 28745.971331341974
43895.01283965029 10492.657822764606 15447.92521610193
-2490.1960335094923 -5887.097955726292 42391.21128951545
42248.15117830289 8922.486952783775 18999.393543739556
-2790.0662983601555 -9515.233236382815 44843.56444300809
37058.207461378326 7589.0861277847835 20736.695027463134
-3053.8801810432306 -10492.669344078993 43546.5303699937
31052.68815746886 6358.957392644174 22379.246797335414
-2984.7363797933867 -9572.175518431552 41661.24551923971
25180.747830547716 5121.63466207536 24205.44810877777
-2568.873124349572 -8050.283156706449 39902.47147824098
19431.824344969173 3910.918735851403 26268.55546051213
-1939.2790402974024 -6501.233996858428 38323.97598471497
13580.524639103047 2759.9661483954415 28554.16837067755
-1319.213365279825 -4982.383139969055 36898.71096237092
7408.238007952342 956.64556844558 30366.89562647193
-1178.7878099208576 -3565.453472615491 35168.524382510084
1317.4960145298191 -4773.570448873278 28476.74292479277
-2131.2171894387584 -3131.692373293197 30837.423436720645
1384.7263963191065 6691.825588747227 3714.588235303496
-45621.83901666872 -19552.216721429453 29813.186329648805
3563.2458129928796 8237.59968611258 15071.781598912885
-44552.888748736004 -12995.723759133536 42490.20026933768
4525.964547216731 7555.5054032968 19170.345248254795
-40240.964957281336 -10535.633501147751 44888.28382551058
4168.443232916486 6359.418621827594 21098.10891283032
-35132.67077134706 -9441.052590373441 43686.246263969886
3287.2211477851247 5062.392045917812 22688.519952212944
-29792.032800515954 -8195.071106786692 41705.87077581306
2461.7929249906188 3687.9376250881496 24411.269698777825
-24241.67350579689 -6735.705662760061 39797.98080703914
1841.9022921795683 2321.522445587334 26389.485859256027
-18433.988551347076 -5267.397293342857 38113.30266909379
1427.6562001911554 1426.979179462301 28647.466919211114
-12463.45477404573 -3809.3448685083504 36674.870772112656
1175.6545726384686 1928.2454200232066 30434.208753538784
-7177.031524002247 -2260.744130906456 35131.01387007316
1204.5889435810698 4651.855270420627 28013.428801864033
-5020.7388850531825 -727.3517761301584 31231.857813941526
-36303.1380664242 2191.4188291411238 3624.4770933161362
-91452.08018025088 -39193.74864867896 32919.419979730315
-36300.66137924101 6259.473436354774 13360.530696623602
-87387.4338001468 -19701.85077102567 42044.597933767145
-33056.04397203761 6229.182131087658 17005.149407469926
-77923.43562883671 -11578.858384900483 42821.26412847092
-28881.23279134066 5145.636029641692 18886.859130696284
-67318.121542259 -8454.565399007175 41209.889421439184
-24642.360908385388 3820.829974851187 20432.83618056107
-56670.59188323504 -6764.089295456163 39127.36563105371
-20338.791715364507 2371.0185149160097 22037.75750051172
-46023.83580669926 -5342.659267283429 37126.700334821275
-15803.899430416654 869.4773221602608 23807.8924492003
-35188.65029009275 -3993.206588539586 35315.52624766034
-10802.182001743748 66.95826686123613 25843.478267288003
-24029.725495271086 -2655.8767056344905 33770.338579180694
-5129.893887137666 2515.9103551113267 27710.740347038452
-13437.411507805004 -1062.425807165172 32455.6468396712
975.1717606723737 13263.106397228345 25990.64523967411
-7512.930684486541 1494.6088705339687 29824.647077061265
-74811.02822285474 -364.6274147546544 4139.931301554
-141816.18536705946 -60778.365157311215 38466.437298862365
-76861.04759864658 4859.717032474769 10054.640882594565
-131513.64360932086 -24665.748294668683 40521.830223373036
-70819.71167923897 4996.497497494449 12449.584367743726
-115651.83658996297 -11764.906820946535 38374.48689714112
-62007.418401212184 3937.0752634351334 14099.604840084749
-99374.34768555817 -7241.203648071154 36056.650778862626
-52647.51403554969 2623.0923491431854 15616.797307936746
-83497.2740411912 -5272.862867984343 33910.90290932185
-43218.37195655853 1203.423049712128 17133.04444982174
-67874.39216715794 -3902.712564403239 31904.79012968207
-33614.09773822482 -319.2506341802511 18638.9623767098
-52263.31950670118 -2672.9830432054187 30000.50943087929
-23440.450523213793 -1280.9017708318597 20231.889573160446
-36348.22278945128 -1491.0185132770423 28272.982646753444
-12091.100454800442 2078.9666498463616 22125.527285565993
-20461.10348842324 -4.038755921489608 27096.403505859158
128.5147280691316 19324.648166494215 22298.437261465235
-9567.295209757664 3160.597469151208 26337.8121354388
-115747.64044220743 48.23966734351321 4720.549060177024
-200871.4897847588 -86087.78133632522 47155.95227381304
-119201.63141445049 4062.2801600287507 4471.040313721995
-176483.83375286337 -25981.557465794773 36516.937072002176
-108973.35145302794 3818.225165235232 5317.4706443886635
-152753.31650619436 -10317.013450718654 30913.04397562341
-95111.77629785701 2704.796256564984 6739.139152348666
-130983.85436342962 -5614.84751065137 28119.232472429678
-80622.07337616375 1435.9386837471227 8281.635989433014
-110147.20370124184 -3738.9583448852304 26087.980314028013
-66142.26258656182 138.92312365456507 9779.859298139998
-89716.36335316548 -2461.614163539564 24188.60511636782
-51616.8327546157 -1164.5139550065674 11102.203040069902
-69540.61736542251 -1317.5146387139052 22285.443336360684
-36711.62969013156 -2338.967948197673 12109.118996566858
-49565.68300975259 -285.4497786362627 20399.59209252523
-20394.404166513432 151.59299520073313 13566.70905217903
-29122.486561454596 913.5219640909058 19117.001670128833
-2032.0020621181409 20742.94814697641 16498.788625527497
-11411.924769874971 4001.227022331635 20268.525177295018
-162452.6235171336 3556.2399548003004 3287.2964384050592
-277641.63749672275 -118989.27321288119 59962.241029688106
-163890.34843126003 3403.2416179464917 -4453.30706188807
-218116.59635013354 -20299.74840219975 26475.2241348896
-147218.01817912978 2598.682645765381 -4519.624013832234
-187751.27527024352 -6822.86988447513 19635.967601833665
-127962.8834279525 1434.0846721285143 -3127.1182833221806
-161902.46593054998 -3694.6521048432123 17444.02868367962
-108451.19571478065 218.39362352378717 -1500.2301799076163
-136596.56537315887 -2266.0647329597923 15780.068562018445
-89060.88497797847 -932.1646214372913 67.96687691561134
-111477.2342464368 -1078.4800328999752 14059.895743269248
-69787.49236459033 -1893.5563034386048 1401.074913061796
-86795.76757857091 38.599978308801845 12272.766457018337
-50499.77173090446 -2464.9901279920196 2190.3724217896674
-63054.83230274063 991.86943735372 10469.392724855328
-30783.419241098476 -2961.987621741901 2135.4898249793596
-40762.13990745351 1708.280653487145 8955.973775854913
-6890.605454136642 14550.972092387694 7347.52351352404
-14695.04702704891 3933.0290414229307 10898.056615223013
SCALARS von_mises float 1
LOOKUP_TABLE default
245037.09109055085
194984.4454796721
201497.71215122554
173966.3976758649
180567.12086016854
152265.11126119058
158594.40331186604
133398.09640859
135169.049024285
114241.34198810143
111010.34006918359
94689.56734552234
86722.77927794658
74935.73402771541
63027.70052373001
55290.53504043484
41139.58147483459
37004.01076119402
31341.80807547923
26850.364207393664
166921.80276824778
137912.65903776104
169209.367544547
137798.14510894346
147141.58960406313
124879.06391901938
127953.90562718446
109950.18074595169
109006.25415090183
95588.82522263109
90087.9301330138
81380.1336097914
71377.57859177605
67315.3266496084
53355.20324576395
53696.83414399638
38136.178758752445
41935.14897631577
40580.02258989459
36067.19993135083
114830.90062447732
94915.50452678175
125381.1580239973
105910.84297598433
114049.07802922766
100816.40343079192
99234.13490012719
91327.87357108205
85458.64911174863
82018.62381982102
72476.76763008766
73190.98889212914
60448.081757913526
64797.85231096602
50110.84978417397
56999.13936600924
43567.96239911325
50226.321088931014
46875.12258867299
44304.77701369465
72943.62330657063
62904.23846502941
84064.91377124003
82341.25061308114
80741.58333026615
83826.30606796937
72520.71236648425
79319.6719170484
64714.17218381021
74231.66529398899
58268.78603998402
69538.98734670742
53388.7507237178
65234.031398462066
50481.679112309
61268.47075946512
49662.63792319152
57155.8393519655
49385.4265845414
50139.570946377135
35884.68727078631
49814.50934280975
47877.00753987462
73601.92493694997
50699.99347957913
78132.01531882305
49393.30523791476
76001.84116824126
48059.703720000216
72656.33426998643
47843.97314659072
69479.11702233265
48856.993509380634
66630.32752195427
50995.95933361001
64066.6547533205
53058.0357065065
60994.8719795809
49634.53025298347
53483.78557898018
8878.409015366355
65100.77977781513
27068.02501878902
83612.81632510798
33850.85638801683
85739.4008017317
36968.903794502825
81958.60525325066
39548.694627954435
76998.152920202
42406.51641550189
72259.12756587629
45757.195551662146
68031.8292256947
49639.39281249666
64478.75350995866
52740.46388581273
61179.73292067031
48700.552340454684
54298.91199410331
37969.540856720465
97807.70774255408
46039.69364996345
107732.43233224541
46956.81197280896
103946.37723542193
45599.954311348236
95544.90390035902
44367.79628503807
86410.85677243934
43869.12463135418
77691.8491913699
44325.022152222205
69679.48364019748
46055.08681621191
62785.09937497457
48468.622438671344
57684.69085643788
46802.43652176055
52330.06397668835
74973.07409091001
140090.98685927474
81289.89998505326
139951.46064871474
76545.56495669953
128728.12820763522
68563.43735176533
114491.71286771915
60401.93468205415
100045.87041772887
52933.066442010335
86087.26348285603
46492.05223630422
72794.17652341833
41821.7477228672
60558.27941979192
40549.60764468255
51197.845498904055
43158.26634377792
47040.42864668902
116060.12654207896
192714.6390885176
121530.78654712901
176739.13011946343
111313.43784708728
157260.63497475802
97196.04868179039
137203.92105321048
82604.51242688962
117372.47819168879
68344.30358927022
97926.01380278206
54546.509799823085
78967.93957751215
41318.75468858874
60754.58808337495
31164.292613111884
44406.497673098886
35960.79423409857
37740.4674718198
164358.2708425447
262665.8721648651
165797.7160528858
213686.75634976948
148740.55244199306
187544.1389866153
128799.85384324648
162913.37591551596
108591.65101022366
138207.27822060633
88598.5587710143
113583.24219748886
68902.99073828316
89379.63674004834
49459.22438191318
66092.83164479952
29646.131526310986
44437.95502097204
22834.94132609466
25406.929866792885
