# vtk DataFile Version 3.0
Finite Element Results
ASCII
DATASET UNSTRUCTURED_GRID
POINTS 66 float
0.0 0.0 0
10.0 0.0 0
20.0 0.0 0
30.0 0.0 0
40.0 0.0 0
50.0 0.0 0
60.0 0.0 0
70.0 0.0 0
80.0 0.0 0
90.0 0.0 0
100.0 0.0 0
0.0 10.0 0
10.0 10.0 0
20.0 10.0 0
30.0 10.0 0
40.0 10.0 0
50.0 10.0 0
60.0 10.0 0
70.0 10.0 0
80.0 10.0 0
90.0 10.0 0
100.0 10.0 0
0.0 20.0 0
10.0 20.0 0
20.0 20.0 0
30.0 20.0 0
40.0 20.0 0
50.0 20.0 0
60.0 20.0 0
70.0 20.0 0
80.0 20.0 0
90.0 20.0 0
100.0 20.0 0
0.0 30.0 0
10.0 30.0 0
20.0 30.0 0
30.0 30.0 0
40.0 30.0 0
50.0 30.0 0
60.0 30.0 0
70.0 30.0 0
80.0 30.0 0
90.0 30.0 0
100.0 30.0 0
0.0 40.0 0
10.0 40.0 0
20.0 40.0 0
30.0 40.0 0
40.0 40.0 0
50.0 40.0 0
60.0 40.0 0
70.0 40.0 0
80.0 40.0 0
90.0 40.0 0
100.0 40.0 0
0.0 50.0 0
10.0 50.0 0
20.0 50.0 0
30.0 50.0 0
40.0 50.0 0
50.0 50.0 0
60.0 50.0 0
70.0 50.0 0
80.0 50.0 0
90.0 50.0 0
100.0 50.0 0
CELLS 100 400
3 0 1 12
3 0 12 11
3 1 2 13
3 1 13 12
3 2 3 14
3 2 14 13
3 3 4 15
3 3 15 14
3 4 5 16
3 4 16 15
3 5 6 17
3 5 17 16
3 6 7 18
3 6 18 17
3 7 8 19
3 7 19 18
3 8 9 20
3 8 20 19
3 9 10 21
3 9 21 20
3 11 12 23
3 11 23 22
3 12 13 24
3 12 24 23
3 13 14 25
3 13 25 24
3 14 15 26
3 14 26 25
3 15 16 27
3 15 27 26
3 16 17 28
3 16 28 27
3 17 18 29
3 17 29 28
3 18 19 30
3 18 30 29
3 19 20 31
3 19 31 30
3 20 21 32
3 20 32 31
3 22 23 34
3 22 34 33
3 23 24 35
3 23 35 34
3 24 25 36
3 24 36 35
3 25 26 37
3 25 37 36
3 26 27 38
3 26 38 37
3 27 28 39
3 27 39 38
3 28 29 40
3 28 40 39
3 29 30 41
3 29 41 40
3 30 31 42
3 30 42 41
3 31 32 43
3 31 43 42
3 33 34 45
3 33 45 44
3 34 35 46
3 34 46 45
3 35 36 47
3 35 47 46
3 36 37 48
3 36 48 47
3 37 38 49
3 37 49 48
3 38 39 50
3 38 50 49
3 39 40 51
3 39 51 50
3 40 41 52
3 40 52 51
3 41 42 53
3 41 53 52
3 42 43 54
3 42 54 53
3 44 45 56
3 44 56 55
3 45 46 57
3 45 57 56
3 46 47 58
3 46 58 57
3 47 48 59
3 47 59 58
3 48 49 60
3 48 60 59
3 49 50 61
3 49 61 60
3 50 51 62
3 50 62 61
3 51 52 63
3 51 63 62
3 52 53 64
3 52 64 63
3 53 54 65
3 53 65 64
CELL_TYPES 100
5
5
5
5
5
5
5
5
5
5
5
5
5
5
5
5
5
5
5
5
5
5
5
5
5
5
5
5
5
5
5
5
5
5
5
5
5
5
5
5
5
5
5
5
5
5
5
5
5
5
5
5
5
5
5
5
5
5
5
5
5
5
5
5
5
5
5
5
5
5
5
5
5
5
5
5
5
5
5
5
5
5
5
5
5
5
5
5
5
5
5
5
5
5
5
5
5
5
5
5
POINT_DATA 66
VECTORS displacement float
0.0 0.0 0
0.09331104459998778 0.06919404074968058 0
0.17195693046565122 0.14829821028103118 0
0.24174113606361838 0.253640864581614 0
0.30285147371368426 0.38451293966955924 0
0.3549717797673892 0.5379226696666541 0
0.3978404161147082 0.7102911978275531 0
0.4313208917662216 0.8978584213651609 0
0.4555037204129203 1.0970098626625748 0
0.471085203902133 1.3053599433485286 0
0.4812404263967695 1.5272643464224427 0
0.0 0.0 0
0.04296282462762269 0.04161184582042849 0
0.09170065369931349 0.12220653914966138 0
0.13498810510225867 0.23038185558883661 0
0.17247520004698644 0.3643139039585983 0
0.2041993978948054 0.520898006586494 0
0.23016026210439436 0.6965255114882678 0
0.25029578802620867 0.8874060239042552 0
0.26451375325786913 1.089706832923784 0
0.27300579106775924 1.2998902091332991 0
0.27761265257697915 1.5157531633560328 0
0.0 0.0 0
0.012536198790969235 0.03285911778314838 0
0.027713466858092 0.10892872275780702 0
0.04296569600589279 0.21785931046836263 0
0.05628208471843673 0.3534152113293085 0
0.0674669591250534 0.5117289438136344 0
0.07659358303437676 0.6890874770261232 0
0.08371712226520936 0.8817292038914349 0
0.08877227537932128 1.0857287696125657 0
0.0916133301845655 1.2965966109691505 0
0.09267292920808966 1.5081552301418568 0
0.0 0.0 0
-0.014914583810555852 0.033395990792551025 0
-0.029889959173351303 0.10844265654692191 0
-0.04318284438782703 0.21658143582053124 0
-0.05461653860648226 0.3521033281351314 0
-0.06431025292952014 0.5105258604353016 0
-0.07218483524638945 0.6879536908282021 0
-0.07810543411228078 0.8806424258169043 0
-0.0819765911192173 1.0848673794153014 0
-0.08419391650806878 1.296241859463423 0
-0.08626459253032948 1.5076359278532148 0
0.0 0.0 0
-0.04479808799454233 0.04293231049526444 0
-0.09084166799335573 0.11955849530135595 0
-0.13294092321816134 0.226687864502251 0
-0.16961202030560668 0.36068345672377583 0
-0.20057376005905542 0.5175455348818073 0
-0.22579766093531284 0.6933600252132948 0
-0.2452380433369075 0.8843758277781495 0
-0.25879044964823694 1.0870633702028265 0
-0.26636164000702256 1.2984337189418627 0
-0.2705199824550392 1.5139989031025511 0
0.0 0.0 0
-0.08353196404011082 0.06603985714595269 0
-0.16464657029296853 0.1436973926915542 0
-0.23654472014365538 0.24848567880966002 0
-0.2986382818136663 0.379368398969562 0
-0.3509492481764484 0.5329951828929762 0
-0.39367092551738125 0.7055937424410818 0
-0.4270396389963843 0.8934373609698533 0
-0.4513283291300664 1.0930466664087581 0
-0.46676885735289525 1.3017862115024326 0
-0.4721788407611596 1.522391120197978 0
CELL_DATA 100
VECTORS stress float
2193964336.2006087 334068343.44307184 144967852.13319606
1156691432.2821493 495724899.54949254 320091121.6956038
1816331491.0212874 204984460.2976991 -8862363.34605485
993916225.8233823 -180237989.57573938 232665179.66821384
1610432354.6439927 178998284.01715276 -10849051.236745322
864373640.1019496 -202997475.81058857 214761843.63721156
1412212524.6829944 161299088.35950342 3813857.086518301
740894760.1337008 -193660685.0586856 209069364.6800154
1206800588.9825165 143031833.0768994 20287293.265470058
621047222.314808 -177771755.51257503 201598684.31690642
995320751.589912 124023479.48830695 36064416.542962484
502507923.94862443 -158807880.509053 191193254.07069334
780792835.299526 104902479.72384572 50323998.44303724
383275470.90324605 -138281640.80597886 178464295.42825752
566810428.1173785 82412606.8021565 62780570.32586748
262186785.53425458 -117357255.88984126 163659271.38089088
356389160.6876947 32524272.92704542 79005137.31984648
144366059.43406975 -98634979.77640715 147641608.11126077
140588493.32009912 -192740823.00368965 140589455.80095172
60918568.918657415 -94105980.68825258 136796472.21815303
1055698416.4673789 260074529.31502807 86040153.72134645
337513044.37224865 144648447.58810657 252762444.48575675
1158966747.4087403 204879894.12343052 127750049.90777999
307625739.8385347 -60528046.38304797 351099839.5231169
1020940478.6892086 162325147.55968362 124253133.40622582
257431364.84247088 -181492412.6906851 345718468.22564715
883513795.097019 139117063.18905565 136453331.08624604
214027252.40917513 -183494806.56033096 334873013.573692
748316140.831362 119189054.35938428 152705106.6011053
175377088.30172068 -164370096.86607134 324004747.3521251
613122869.5411115 99293659.20674805 169698660.2442787
139919919.41032627 -141552183.39248782 312508418.7902826
476608543.90092075 79495529.52192974 186937281.96144602
105964120.11305477 -118060090.54813164 300577290.73303217
336890641.1075699 56951740.44789731 204302547.23831543
70598506.77047262 -94508772.10540639 287853076.61639607
190628731.44917205 9311254.925498236 221468579.43324187
30589206.550209142 -74320302.93382971 270202795.98489857
36362426.62311909 -151403646.04450694 237871006.56803292
-9475389.722218143 -76447654.14795545 232047371.4577884
343707732.9422792 159102720.91817787 41602578.32017916
-401546487.20727295 -172091351.66025984 256892236.86577713
403010299.3738616 162035925.8660481 142047530.33242568
-396988494.27446246 -158338519.31756857 366122178.0988137
395892231.1196593 141582941.95608678 175246517.8218136
-363493827.4384056 -166465842.7677805 388733486.47820026
343381043.86644703 118330706.83996998 189671365.66174492
-322574936.4387718 -166331558.42609796 379795014.7760024
287249502.7358393 96665536.81353873 204127080.2288648
-276121730.16844827 -147170482.03212813 365568530.5788557
232634649.12115505 74782185.93277939 219847037.93632674
-225889716.74263012 -123251271.53437647 351158602.6025149
179247847.6624471 52935273.73378263 237070542.21401256
-172482887.13462517 -98839615.31969698 337771666.98412305
126161158.48842685 35137415.23648334 255774609.40455487
-116763204.89287463 -73926605.93278159 326172286.31466836
72396650.4597204 23230399.521698907 269696882.03038836
-69636339.66828103 -48775798.259246126 312504719.6121788
22535716.53362381 -1755072.8843167052 250931518.7252868
-59842256.43464455 -33443417.71874322 273744782.2858247
-291512029.0990412 84655717.2589476 27019127.758188833
-1206102369.083832 -516901015.32164234 330248542.271265
-274923504.9087153 126479789.2025076 108422745.6489727
-1129600388.0136676 -274525007.9901781 359559081.70850044
-241272732.52373347 118716712.0331199 141390003.4098079
-1005181808.8859122 -186488055.3591473 355212772.1606969
-208828745.24866647 99076221.01748258 157895466.2728901
-870686129.1036848 -151031886.5011441 340288564.5476196
-179988372.7759534 77140685.2170248 170454039.7741144
-734583817.3392614 -126247381.30705959 322050741.99159354
-149627204.08772066 54694591.32707953 183192343.87674704
-598108779.978019 -102053775.01243275 304238332.3227095
-116323023.75963081 32200065.888624314 196585582.80058086
-461014129.44571084 -78756948.11205937 287715206.73793334
-78885102.63838583 14455632.66102618 210854577.45674998
-321794762.6752735 -55859250.78950876 273499486.1542332
-34406535.71785177 33427077.625087656 224667358.07052213
-178501385.1881683 -28237059.860313132 265819155.4616668
17669975.354553614 147418456.45604673 208759065.11601442
-86664687.31076135 11030726.9424094 256903543.55180752
-939476830.8066598 105225240.65842581 32295649.613045804
-2248937493.387599 -963830354.308971 507998901.12271297
-961109107.0042273 118621314.36518309 21702173.126759417
-1917229245.4536123 -313811508.47598237 299412765.38486946
-881928244.8131242 101103594.1440242 27119786.733853843
-1657193679.9392807 -179700645.46412563 238333721.68071553
-771703280.2875352 79928094.06987403 38225620.87280928
-1420236495.2609615 -129599941.76219155 209837871.0339069
-655320131.6947485 58701218.53013845 49896846.466450065
-1192776683.8542943 -100531936.03016508 189234787.81042048
-537946747.8863125 38324299.868218966 61086351.918607906
-971933835.9731674 -76990369.01775585 170946703.31317276
-418838758.6001965 19652250.527470693 70878514.6567532
-757230164.1140808 -55654307.08653983 153618107.28233156
-295834444.4673499 4714825.028971508 78074330.32959706
-549370120.6179366 -36289761.76584477 136982382.91867727
-165157133.9607305 2899526.337047592 84331779.94741124
-346668495.93079585 -17071197.02678782 124628197.01419234
-15122099.422444994 177963432.01514292 106971737.34283121
-106970792.98515631 27836529.612291433 155366856.53594336
SCALARS von_mises float 1
LOOKUP_TABLE default
2062812199.3287697
1147890447.749918
1723077075.5490513
1167002963.441199
1528928131.8284762
1049849217.9517177
1338886348.6097367
927923321.7663906
1142562728.80116
805998258.6364541
941543416.7432479
683520999.0122043
739143011.7315838
560865736.1663278
541458931.2866275
440042303.6782141
367702595.8889175
331970021.2997101
378559739.6194464
272836276.4454278
964254303.9706743
526957351.8123995
1093933697.1991787
697660746.4944519
974300325.4578846
710278833.1305691
856093963.0845253
674663400.3321012
744948678.0083834
633670758.1681025
641320962.1702875
593637187.1842374
548109146.9065698
555622926.5069941
471986110.89567286
518812506.1166308
426375439.0629168
477243395.9281519
446652595.84192014
408347405.1835258
306522706.409841
565449556.5941622
428839478.47732526
722460191.8472145
461366261.61909115
743418121.649775
446324833.15167254
714702137.1214608
434848215.00879914
676894706.8585348
432796127.51011604
638993691.5143138
440511891.06722766
603937555.3390635
457143578.4261627
574135839.9588428
471495861.9927138
544802101.3016653
435258971.06764704
476976776.95131534
344984221.786298
1193995956.5282423
402018423.5801359
1195452073.8133569
401151709.30280757
1111864291.8106186
385886563.82530093
998394971.4468634
373355949.57529217
879751410.3120234
366390368.1426479
764717408.8379024
366403020.217317
656329748.7677861
375434571.26836467
559555911.0695384
393544857.0443692
489488704.6664141
387531406.0110048
454518109.1367546
997835041.2070028
2143194631.9937923
1026266393.4206592
1855139092.653372
937758993.3310181
1628248546.6099157
817299712.2735163
1407800084.0537236
691973615.2347484
1191780245.3396652
568037424.0955867
981540462.6705486
446222514.43760294
777912187.7871193
327447490.3260231
582649538.8555002
221584545.80152497
401433665.89619493
262525616.8614298
295993072.4001695
