# vtk DataFile Version 3.0
Finite Element Results
ASCII
DATASET UNSTRUCTURED_GRID
POINTS 441 float
0.0 0.0 0
5.0 0.0 0
10.0 0.0 0
15.0 0.0 0
20.0 0.0 0
25.0 0.0 0
30.0 0.0 0
35.0 0.0 0
40.0 0.0 0
45.0 0.0 0
50.0 0.0 0
55.0 0.0 0
60.0 0.0 0
65.0 0.0 0
70.0 0.0 0
75.0 0.0 0
80.0 0.0 0
85.0 0.0 0
90.0 0.0 0
95.0 0.0 0
100.0 0.0 0
0.0 2.5 0
5.0 2.5 0
10.0 2.5 0
15.0 2.5 0
20.0 2.5 0
25.0 2.5 0
30.0 2.5 0
35.0 2.5 0
40.0 2.5 0
45.0 2.5 0
50.0 2.5 0
55.0 2.5 0
60.0 2.5 0
65.0 2.5 0
70.0 2.5 0
75.0 2.5 0
80.0 2.5 0
85.0 2.5 0
90.0 2.5 0
95.0 2.5 0
100.0 2.5 0
0.0 5.0 0
5.0 5.0 0
10.0 5.0 0
15.0 5.0 0
20.0 5.0 0
25.0 5.0 0
30.0 5.0 0
35.0 5.0 0
40.0 5.0 0
45.0 5.0 0
50.0 5.0 0
55.0 5.0 0
60.0 5.0 0
65.0 5.0 0
70.0 5.0 0
75.0 5.0 0
80.0 5.0 0
85.0 5.0 0
90.0 5.0 0
95.0 5.0 0
100.0 5.0 0
0.0 7.5 0
5.0 7.5 0
10.0 7.5 0
15.0 7.5 0
20.0 7.5 0
25.0 7.5 0
30.0 7.5 0
35.0 7.5 0
40.0 7.5 0
45.0 7.5 0
50.0 7.5 0
55.0 7.5 0
60.0 7.5 0
65.0 7.5 0
70.0 7.5 0
75.0 7.5 0
80.0 7.5 0
85.0 7.5 0
90.0 7.5 0
95.0 7.5 0
100.0 7.5 0
0.0 10.0 0
5.0 10.0 0
10.0 10.0 0
15.0 10.0 0
20.0 10.0 0
25.0 10.0 0
30.0 10.0 0
35.0 10.0 0
40.0 10.0 0
45.0 10.0 0
50.0 10.0 0
55.0 10.0 0
60.0 10.0 0
65.0 10.0 0
70.0 10.0 0
75.0 10.0 0
80.0 10.0 0
85.0 10.0 0
90.0 10.0 0
95.0 10.0 0
100.0 10.0 0
0.0 12.5 0
5.0 12.5 0
10.0 12.5 0
15.0 12.5 0
20.0 12.5 0
25.0 12.5 0
30.0 12.5 0
35.0 12.5 0
40.0 12.5 0
45.0 12.5 0
50.0 12.5 0
55.0 12.5 0
60.0 12.5 0
65.0 12.5 0
70.0 12.5 0
75.0 12.5 0
80.0 12.5 0
85.0 12.5 0
90.0 12.5 0
95.0 12.5 0
100.0 12.5 0
0.0 15.0 0
5.0 15.0 0
10.0 15.0 0
15.0 15.0 0
20.0 15.0 0
25.0 15.0 0
30.0 15.0 0
35.0 15.0 0
40.0 15.0 0
45.0 15.0 0
50.0 15.0 0
55.0 15.0 0
60.0 15.0 0
65.0 15.0 0
70.0 15.0 0
75.0 15.0 0
80.0 15.0 0
85.0 15.0 0
90.0 15.0 0
95.0 15.0 0
100.0 15.0 0
0.0 17.5 0
5.0 17.5 0
10.0 17.5 0
15.0 17.5 0
20.0 17.5 0
25.0 17.5 0
30.0 17.5 0
35.0 17.5 0
40.0 17.5 0
45.0 17.5 0
50.0 17.5 0
55.0 17.5 0
60.0 17.5 0
65.0 17.5 0
70.0 17.5 0
75.0 17.5 0
80.0 17.5 0
85.0 17.5 0
90.0 17.5 0
95.0 17.5 0
100.0 17.5 0
0.0 20.0 0
5.0 20.0 0
10.0 20.0 0
15.0 20.0 0
20.0 20.0 0
25.0 20.0 0
30.0 20.0 0
35.0 20.0 0
40.0 20.0 0
45.0 20.0 0
50.0 20.0 0
55.0 20.0 0
60.0 20.0 0
65.0 20.0 0
70.0 20.0 0
75.0 20.0 0
80.0 20.0 0
85.0 20.0 0
90.0 20.0 0
95.0 20.0 0
100.0 20.0 0
0.0 22.5 0
5.0 22.5 0
10.0 22.5 0
15.0 22.5 0
20.0 22.5 0
25.0 22.5 0
30.0 22.5 0
35.0 22.5 0
40.0 22.5 0
45.0 22.5 0
50.0 22.5 0
55.0 22.5 0
60.0 22.5 0
65.0 22.5 0
70.0 22.5 0
75.0 22.5 0
80.0 22.5 0
85.0 22.5 0
90.0 22.5 0
95.0 22.5 0
100.0 22.5 0
0.0 25.0 0
5.0 25.0 0
10.0 25.0 0
15.0 25.0 0
20.0 25.0 0
25.0 25.0 0
30.0 25.0 0
35.0 25.0 0
40.0 25.0 0
45.0 25.0 0
50.0 25.0 0
55.0 25.0 0
60.0 25.0 0
65.0 25.0 0
70.0 25.0 0
75.0 25.0 0
80.0 25.0 0
85.0 25.0 0
90.0 25.0 0
95.0 25.0 0
100.0 25.0 0
0.0 27.5 0
5.0 27.5 0
10.0 27.5 0
15.0 27.5 0
20.0 27.5 0
25.0 27.5 0
30.0 27.5 0
35.0 27.5 0
40.0 27.5 0
45.0 27.5 0
50.0 27.5 0
55.0 27.5 0
60.0 27.5 0
65.0 27.5 0
70.0 27.5 0
75.0 27.5 0
80.0 27.5 0
85.0 27.5 0
90.0 27.5 0
95.0 27.5 0
100.0 27.5 0
0.0 30.0 0
5.0 30.0 0
10.0 30.0 0
15.0 30.0 0
20.0 30.0 0
25.0 30.0 0
30.0 30.0 0
35.0 30.0 0
40.0 30.0 0
45.0 30.0 0
50.0 30.0 0
55.0 30.0 0
60.0 30.0 0
65.0 30.0 0
70.0 30.0 0
75.0 30.0 0
80.0 30.0 0
85.0 30.0 0
90.0 30.0 0
95.0 30.0 0
100.0 30.0 0
0.0 32.5 0
5.0 32.5 0
10.0 32.5 0
15.0 32.5 0
20.0 32.5 0
25.0 32.5 0
30.0 32.5 0
35.0 32.5 0
40.0 32.5 0
45.0 32.5 0
50.0 32.5 0
55.0 32.5 0
60.0 32.5 0
65.0 32.5 0
70.0 32.5 0
75.0 32.5 0
80.0 32.5 0
85.0 32.5 0
90.0 32.5 0
95.0 32.5 0
100.0 32.5 0
0.0 35.0 0
5.0 35.0 0
10.0 35.0 0
15.0 35.0 0
20.0 35.0 0
25.0 35.0 0
30.0 35.0 0
35.0 35.0 0
40.0 35.0 0
45.0 35.0 0
50.0 35.0 0
55.0 35.0 0
60.0 35.0 0
65.0 35.0 0
70.0 35.0 0
75.0 35.0 0
80.0 35.0 0
85.0 35.0 0
90.0 35.0 0
95.0 35.0 0
100.0 35.0 0
0.0 37.5 0
5.0 37.5 0
10.0 37.5 0
15.0 37.5 0
20.0 37.5 0
25.0 37.5 0
30.0 37.5 0
35.0 37.5 0
40.0 37.5 0
45.0 37.5 0
50.0 37.5 0
55.0 37.5 0
60.0 37.5 0
65.0 37.5 0
70.0 37.5 0
75.0 37.5 0
80.0 37.5 0
85.0 37.5 0
90.0 37.5 0
95.0 37.5 0
100.0 37.5 0
0.0 40.0 0
5.0 40.0 0
10.0 40.0 0
15.0 40.0 0
20.0 40.0 0
25.0 40.0 0
30.0 40.0 0
35.0 40.0 0
40.0 40.0 0
45.0 40.0 0
50.0 40.0 0
55.0 40.0 0
60.0 40.0 0
65.0 40.0 0
70.0 40.0 0
75.0 40.0 0
80.0 40.0 0
85.0 40.0 0
90.0 40.0 0
95.0 40.0 0
100.0 40.0 0
0.0 42.5 0
5.0 42.5 0
10.0 42.5 0
15.0 42.5 0
20.0 42.5 0
25.0 42.5 0
30.0 42.5 0
35.0 42.5 0
40.0 42.5 0
45.0 42.5 0
50.0 42.5 0
55.0 42.5 0
60.0 42.5 0
65.0 42.5 0
70.0 42.5 0
75.0 42.5 0
80.0 42.5 0
85.0 42.5 0
90.0 42.5 0
95.0 42.5 0
100.0 42.5 0
0.0 45.0 0
5.0 45.0 0
10.0 45.0 0
15.0 45.0 0
20.0 45.0 0
25.0 45.0 0
30.0 45.0 0
35.0 45.0 0
40.0 45.0 0
45.0 45.0 0
50.0 45.0 0
55.0 45.0 0
60.0 45.0 0
65.0 45.0 0
70.0 45.0 0
75.0 45.0 0
80.0 45.0 0
85.0 45.0 0
90.0 45.0 0
95.0 45.0 0
100.0 45.0 0
0.0 47.5 0
5.0 47.5 0
10.0 47.5 0
15.0 47.5 0
20.0 47.5 0
25.0 47.5 0
30.0 47.5 0
35.0 47.5 0
40.0 47.5 0
45.0 47.5 0
50.0 47.5 0
55.0 47.5 0
60.0 47.5 0
65.0 47.5 0
70.0 47.5 0
75.0 47.5 0
80.0 47.5 0
85.0 47.5 0
90.0 47.5 0
95.0 47.5 0
100.0 47.5 0
0.0 50.0 0
5.0 50.0 0
10.0 50.0 0
15.0 50.0 0
20.0 50.0 0
25.0 50.0 0
30.0 50.0 0
35.0 50.0 0
40.0 50.0 0
45.0 50.0 0
50.0 50.0 0
55.0 50.0 0
60.0 50.0 0
65.0 50.0 0
70.0 50.0 0
75.0 50.0 0
80.0 50.0 0
85.0 50.0 0
90.0 50.0 0
95.0 50.0 0
100.0 50.0 0
CELLS 800 3200
3 0 1 22
3 0 22 21
3 1 2 23
3 1 23 22
3 2 3 24
3 2 24 23
3 3 4 25
3 3 25 24
3 4 5 26
3 4 26 25
3 5 6 27
3 5 27 26
3 6 7 28
3 6 28 27
3 7 8 29
3 7 29 28
3 8 9 30
3 8 30 29
3 9 10 31
3 9 31 30
3 10 11 32
3 10 32 31
3 11 12 33
3 11 33 32
3 12 13 34
3 12 34 33
3 13 14 35
3 13 35 34
3 14 15 36
3 14 36 35
3 15 16 37
3 15 37 36
3 16 17 38
3 16 38 37
3 17 18 39
3 17 39 38
3 18 19 40
3 18 40 39
3 19 20 41
3 19 41 40
3 21 22 43
3 21 43 42
3 22 23 44
3 22 44 43
3 23 24 45
3 23 45 44
3 24 25 46
3 24 46 45
3 25 26 47
3 25 47 46
3 26 27 48
3 26 48 47
3 27 28 49
3 27 49 48
3 28 29 50
3 28 50 49
3 29 30 51
3 29 51 50
3 30 31 52
3 30 52 51
3 31 32 53
3 31 53 52
3 32 33 54
3 32 54 53
3 33 34 55
3 33 55 54
3 34 35 56
3 34 56 55
3 35 36 57
3 35 57 56
3 36 37 58
3 36 58 57
3 37 38 59
3 37 59 58
3 38 39 60
3 38 60 59
3 39 40 61
3 39 61 60
3 40 41 62
3 40 62 61
3 42 43 64
3 42 64 63
3 43 44 65
3 43 65 64
3 44 45 66
3 44 66 65
3 45 46 67
3 45 67 66
3 46 47 68
3 46 68 67
3 47 48 69
3 47 69 68
3 48 49 70
3 48 70 69
3 49 50 71
3 49 71 70
3 50 51 72
3 50 72 71
3 51 52 73
3 51 73 72
3 52 53 74
3 52 74 73
3 53 54 75
3 53 75 74
3 54 55 76
3 54 76 75
3 55 56 77
3 55 77 76
3 56 57 78
3 56 78 77
3 57 58 79
3 57 79 78
3 58 59 80
3 58 80 79
3 59 60 81
3 59 81 80
3 60 61 82
3 60 82 81
3 61 62 83
3 61 83 82
3 63 64 85
3 63 85 84
3 64 65 86
3 64 86 85
3 65 66 87
3 65 87 86
3 66 67 88
3 66 88 87
3 67 68 89
3 67 89 88
3 68 69 90
3 68 90 89
3 69 70 91
3 69 91 90
3 70 71 92
3 70 92 91
3 71 72 93
3 71 93 92
3 72 73 94
3 72 94 93
3 73 74 95
3 73 95 94
3 74 75 96
3 74 96 95
3 75 76 97
3 75 97 96
3 76 77 98
3 76 98 97
3 77 78 99
3 77 99 98
3 78 79 100
3 78 100 99
3 79 80 101
3 79 101 100
3 80 81 102
3 80 102 101
3 81 82 103
3 81 103 102
3 82 83 104
3 82 104 103
3 84 85 106
3 84 106 105
3 85 86 107
3 85 107 106
3 86 87 108
3 86 108 107
3 87 88 109
3 87 109 108
3 88 89 110
3 88 110 109
3 89 90 111
3 89 111 110
3 90 91 112
3 90 112 111
3 91 92 113
3 91 113 112
3 92 93 114
3 92 114 113
3 93 94 115
3 93 115 114
3 94 95 116
3 94 116 115
3 95 96 117
3 95 117 116
3 96 97 118
3 96 118 117
3 97 98 119
3 97 119 118
3 98 99 120
3 98 120 119
3 99 100 121
3 99 121 120
3 100 101 122
3 100 122 121
3 101 102 123
3 101 123 122
3 102 103 124
3 102 124 123
3 103 104 125
3 103 125 124
3 105 106 127
3 105 127 126
3 106 107 128
3 106 128 127
3 107 108 129
3 107 129 128
3 108 109 130
3 108 130 129
3 109 110 131
3 109 131 130
3 110 111 132
3 110 132 131
3 111 112 133
3 111 133 132
3 112 113 134
3 112 134 133
3 113 114 135
3 113 135 134
3 114 115 136
3 114 136 135
3 115 116 137
3 115 137 136
3 116 117 138
3 116 138 137
3 117 118 139
3 117 139 138
3 118 119 140
3 118 140 139
3 119 120 141
3 119 141 140
3 120 121 142
3 120 142 141
3 121 122 143
3 121 143 142
3 122 123 144
3 122 144 143
3 123 124 145
3 123 145 144
3 124 125 146
3 124 146 145
3 126 127 148
3 126 148 147
3 127 128 149
3 127 149 148
3 128 129 150
3 128 150 149
3 129 130 151
3 129 151 150
3 130 131 152
3 130 152 151
3 131 132 153
3 131 153 152
3 132 133 154
3 132 154 153
3 133 134 155
3 133 155 154
3 134 135 156
3 134 156 155
3 135 136 157
3 135 157 156
3 136 137 158
3 136 158 157
3 137 138 159
3 137 159 158
3 138 139 160
3 138 160 159
3 139 140 161
3 139 161 160
3 140 141 162
3 140 162 161
3 141 142 163
3 141 163 162
3 142 143 164
3 142 164 163
3 143 144 165
3 143 165 164
3 144 145 166
3 144 166 165
3 145 146 167
3 145 167 166
3 147 148 169
3 147 169 168
3 148 149 170
3 148 170 169
3 149 150 171
3 149 171 170
3 150 151 172
3 150 172 171
3 151 152 173
3 151 173 172
3 152 153 174
3 152 174 173
3 153 154 175
3 153 175 174
3 154 155 176
3 154 176 175
3 155 156 177
3 155 177 176
3 156 157 178
3 156 178 177
3 157 158 179
3 157 179 178
3 158 159 180
3 158 180 179
3 159 160 181
3 159 181 180
3 160 161 182
3 160 182 181
3 161 162 183
3 161 183 182
3 162 163 184
3 162 184 183
3 163 164 185
3 163 185 184
3 164 165 186
3 164 186 185
3 165 166 187
3 165 187 186
3 166 167 188
3 166 188 187
3 168 169 190
3 168 190 189
3 169 170 191
3 169 191 190
3 170 171 192
3 170 192 191
3 171 172 193
3 171 193 192
3 172 173 194
3 172 194 193
3 173 174 195
3 173 195 194
3 174 175 196
3 174 196 195
3 175 176 197
3 175 197 196
3 176 177 198
3 176 198 197
3 177 178 199
3 177 199 198
3 178 179 200
3 178 200 199
3 179 180 201
3 179 201 200
3 180 181 202
3 180 202 201
3 181 182 203
3 181 203 202
3 182 183 204
3 182 204 203
3 183 184 205
3 183 205 204
3 184 185 206
3 184 206 205
3 185 186 207
3 185 207 206
3 186 187 208
3 186 208 207
3 187 188 209
3 187 209 208
3 189 190 211
3 189 211 210
3 190 191 212
3 190 212 211
3 191 192 213
3 191 213 212
3 192 193 214
3 192 214 213
3 193 194 215
3 193 215 214
3 194 195 216
3 194 216 215
3 195 196 217
3 195 217 216
3 196 197 218
3 196 218 217
3 197 198 219
3 197 219 218
3 198 199 220
3 198 220 219
3 199 200 221
3 199 221 220
3 200 201 222
3 200 222 221
3 201 202 223
3 201 223 222
3 202 203 224
3 202 224 223
3 203 204 225
3 203 225 224
3 204 205 226
3 204 226 225
3 205 206 227
3 205 227 226
3 206 207 228
3 206 228 227
3 207 208 229
3 207 229 228
3 208 209 230
3 208 230 229
3 210 211 232
3 210 232 231
3 211 212 233
3 211 233 232
3 212 213 234
3 212 234 233
3 213 214 235
3 213 235 234
3 214 215 236
3 214 236 235
3 215 216 237
3 215 237 236
3 216 217 238
3 216 238 237
3 217 218 239
3 217 239 238
3 218 219 240
3 218 240 239
3 219 220 241
3 219 241 240
3 220 221 242
3 220 242 241
3 221 222 243
3 221 243 242
3 222 223 244
3 222 244 243
3 223 224 245
3 223 245 244
3 224 225 246
3 224 246 245
3 225 226 247
3 225 247 246
3 226 227 248
3 226 248 247
3 227 228 249
3 227 249 248
3 228 229 250
3 228 250 249
3 229 230 251
3 229 251 250
3 231 232 253
3 231 253 252
3 232 233 254
3 232 254 253
3 233 234 255
3 233 255 254
3 234 235 256
3 234 256 255
3 235 236 257
3 235 257 256
3 236 237 258
3 236 258 257
3 237 238 259
3 237 259 258
3 238 239 260
3 238 260 259
3 239 240 261
3 239 261 260
3 240 241 262
3 240 262 261
3 241 242 263
3 241 263 262
3 242 243 264
3 242 264 263
3 243 244 265
3 243 265 264
3 244 245 266
3 244 266 265
3 245 246 267
3 245 267 266
3 246 247 268
3 246 268 267
3 247 248 269
3 247 269 268
3 248 249 270
3 248 270 269
3 249 250 271
3 249 271 270
3 250 251 272
3 250 272 271
3 252 253 274
3 252 274 273
3 253 254 275
3 253 275 274
3 254 255 276
3 254 276 275
3 255 256 277
3 255 277 276
3 256 257 278
3 256 278 277
3 257 258 279
3 257 279 278
3 258 259 280
3 258 280 279
3 259 260 281
3 259 281 280
3 260 261 282
3 260 282 281
3 261 262 283
3 261 283 282
3 262 263 284
3 262 284 283
3 263 264 285
3 263 285 284
3 264 265 286
3 264 286 285
3 265 266 287
3 265 287 286
3 266 267 288
3 266 288 287
3 267 268 289
3 267 289 288
3 268 269 290
3 268 290 289
3 269 270 291
3 269 291 290
3 270 271 292
3 270 292 291
3 271 272 293
3 271 293 292
3 273 274 295
3 273 295 294
3 274 275 296
3 274 296 295
3 275 276 297
3 275 297 296
3 276 277 298
3 276 298 297
3 277 278 299
3 277 299 298
3 278 279 300
3 278 300 299
3 279 280 301
3 279 301 300
3 280 281 302
3 280 302 301
3 281 282 303
3 281 303 302
3 282 283 304
3 282 304 303
3 283 284 305
3 283 305 304
3 284 285 306
3 284 306 305
3 285 286 307
3 285 307 306
3 286 287 308
3 286 308 307
3 287 288 309
3 287 309 308
3 288 289 310
3 288 310 309
3 289 290 311
3 289 311 310
3 290 291 312
3 290 312 311
3 291 292 313
3 291 313 312
3 292 293 314
3 292 314 313
3 294 295 316
3 294 316 315
3 295 296 317
3 295 317 316
3 296 297 318
3 296 318 317
3 297 298 319
3 297 319 318
3 298 299 320
3 298 320 319
3 299 300 321
3 299 321 320
3 300 301 322
3 300 322 321
3 301 302 323
3 301 323 322
3 302 303 324
3 302 324 323
3 303 304 325
3 303 325 324
3 304 305 326
3 304 326 325
3 305 306 327
3 305 327 326
3 306 307 328
3 306 328 327
3 307 308 329
3 307 329 328
3 308 309 330
3 308 330 329
3 309 310 331
3 309 331 330
3 310 311 332
3 310 332 331
3 311 312 333
3 311 333 332
3 312 313 334
3 312 334 333
3 313 314 335
3 313 335 334
3 315 316 337
3 315 337 336
3 316 317 338
3 316 338 337
3 317 318 339
3 317 339 338
3 318 319 340
3 318 340 339
3 319 320 341
3 319 341 340
3 320 321 342
3 320 342 341
3 321 322 343
3 321 343 342
3 322 323 344
3 322 344 343
3 323 324 345
3 323 345 344
3 324 325 346
3 324 346 345
3 325 326 347
3 325 347 346
3 326 327 348
3 326 348 347
3 327 328 349
3 327 349 348
3 328 329 350
3 328 350 349
3 329 330 351
3 329 351 350
3 330 331 352
3 330 352 351
3 331 332 353
3 331 353 352
3 332 333 354
3 332 354 353
3 333 334 355
3 333 355 354
3 334 335 356
3 334 356 355
3 336 337 358
3 336 358 357
3 337 338 359
3 337 359 358
3 338 339 360
3 338 360 359
3 339 340 361
3 339 361 360
3 340 341 362
3 340 362 361
3 341 342 363
3 341 363 362
3 342 343 364
3 342 364 363
3 343 344 365
3 343 365 364
3 344 345 366
3 344 366 365
3 345 346 367
3 345 367 366
3 346 347 368
3 346 368 367
3 347 348 369
3 347 369 368
3 348 349 370
3 348 370 369
3 349 350 371
3 349 371 370
3 350 351 372
3 350 372 371
3 351 352 373
3 351 373 372
3 352 353 374
3 352 374 373
3 353 354 375
3 353 375 374
3 354 355 376
3 354 376 375
3 355 356 377
3 355 377 376
3 357 358 379
3 357 379 378
3 358 359 380
3 358 380 379
3 359 360 381
3 359 381 380
3 360 361 382
3 360 382 381
3 361 362 383
3 361 383 382
3 362 363 384
3 362 384 383
3 363 364 385
3 363 385 384
3 364 365 386
3 364 386 385
3 365 366 387
3 365 387 386
3 366 367 388
3 366 388 387
3 367 368 389
3 367 389 388
3 368 369 390
3 368 390 389
3 369 370 391
3 369 391 390
3 370 371 392
3 370 392 391
3 371 372 393
3 371 393 392
3 372 373 394
3 372 394 393
3 373 374 395
3 373 395 394
3 374 375 396
3 374 396 395
3 375 376 397
3 375 397 396
3 376 377 398
3 376 398 397
3 378 379 400
3 378 400 399
3 379 380 401
3 379 401 400
3 380 381 402
3 380 402 401
3 381 382 403
3 381 403 402
3 382 383 404
3 382 404 403
3 383 384 405
3 383 405 404
3 384 385 406
3 384 406 405
3 385 386 407
3 385 407 406
3 386 387 408
3 386 408 407
3 387 388 409
3 387 409 408
3 388 389 410
3 388 410 409
3 389 390 411
3 389 411 410
3 390 391 412
3 390 412 411
3 391 392 413
3 391 413 412
3 392 393 414
3 392 414 413
3 393 394 415
3 393 415 414
3 394 395 416
3 394 416 415
3 395 396 417
3 395 417 416
3 396 397 418
3 396 418 417
3 397 398 419
3 397 419 418
3 399 400 421
3 399 421 420
3 400 401 422
3 400 422 421
3 401 402 423
3 401 423 422
3 402 403 424
3 402 424 423
3 403 404 425
3 403 425 424
3 404 405 426
3 404 426 425
3 405 406 427
3 405 427 426
3 406 407 428
3 406 428 427
3 407 408 429
3 407 429 428
3 408 409 430
3 408 430 429
3 409 410 431
3 409 431 430
3 410 411 432
3 410 432 431
3 411 412 433
3 411 433 432
3 412 413 434
3 412 434 433
3 413 414 435
3 413 435 434
3 414 415 436
3 414 436 435
3 415 416 437
3 415 437 436
3 416 417 438
3 416 438 437
3 417 418 439
3 417 439 438
3 418 419 440
3 418 440 439
CELL_TYPES 800
5
5
5
5
5
5
5
5
5
5
5
5
5
5
5
5
5
5
5
5
5
5
5
5
5
5
5
5
5
5
5
5
5
5
5
5
5
5
5
5
5
5
5
5
5
5
5
5
5
5
5
5
5
5
5
5
5
5
5
5
5
5
5
5
5
5
5
5
5
5
5
5
5
5
5
5
5
5
5
5
5
5
5
5
5
5
5
5
5
5
5
5
5
5
5
5
5
5
5
5
5
5
5
5
5
5
5
5
5
5
5
5
5
5
5
5
5
5
5
5
5
5
5
5
5
5
5
5
5
5
5
5
5
5
5
5
5
5
5
5
5
5
5
5
5
5
5
5
5
5
5
5
5
5
5
5
5
5
5
5
5
5
5
5
5
5
5
5
5
5
5
5
5
5
5
5
5
5
5
5
5
5
5
5
5
5
5
5
5
5
5
5
5
5
5
5
5
5
5
5
5
5
5
5
5
5
5
5
5
5
5
5
5
5
5
5
5
5
5
5
5
5
5
5
5
5
5
5
5
5
5
5
5
5
5
5
5
5
5
5
5
5
5
5
5
5
5
5
5
5
5
5
5
5
5
5
5
5
5
5
5
5
5
5
5
5
5
5
5
5
5
5
5
5
5
5
5
5
5
5
5
5
5
5
5
5
5
5
5
5
5
5
5
5
5
5
5
5
5
5
5
5
5
5
5
5
5
5
5
5
5
5
5
5
5
5
5
5
5
5
5
5
5
5
5
5
5
5
5
5
5
5
5
5
5
5
5
5
5
5
5
5
5
5
5
5
5
5
5
5
5
5
5
5
5
5
5
5
5
5
5
5
5
5
5
5
5
5
5
5
5
5
5
5
5
5
5
5
5
5
5
5
5
5
5
5
5
5
5
5
5
5
5
5
5
5
5
5
5
5
5
5
5
5
5
5
5
5
5
5
5
5
5
5
5
5
5
5
5
5
5
5
5
5
5
5
5
5
5
5
5
5
5
5
5
5
5
5
5
5
5
5
5
5
5
5
5
5
5
5
5
5
5
5
5
5
5
5
5
5
5
5
5
5
5
5
5
5
5
5
5
5
5
5
5
5
5
5
5
5
5
5
5
5
5
5
5
5
5
5
5
5
5
5
5
5
5
5
5
5
5
5
5
5
5
5
5
5
5
5
5
5
5
5
5
5
5
5
5
5
5
5
5
5
5
5
5
5
5
5
5
5
5
5
5
5
5
5
5
5
5
5
5
5
5
5
5
5
5
5
5
5
5
5
5
5
5
5
5
5
5
5
5
5
5
5
5
5
5
5
5
5
5
5
5
5
5
5
5
5
5
5
5
5
5
5
5
5
5
5
5
5
5
5
5
5
5
5
5
5
5
5
5
5
5
5
5
5
5
5
5
5
5
5
5
5
5
5
5
5
5
5
5
5
5
5
5
5
5
5
5
5
5
5
5
5
5
5
5
5
5
5
5
5
5
5
5
5
5
5
5
5
5
5
5
5
5
5
5
5
5
5
5
5
5
5
5
5
5
5
5
5
5
5
5
5
5
5
5
5
5
5
5
5
5
5
5
5
5
5
5
5
5
5
5
5
5
5
5
5
5
5
5
5
5
5
5
5
5
5
5
5
5
5
5
5
5
5
5
5
5
5
5
5
5
5
5
5
5
5
5
5
5
5
5
5
5
5
5
5
5
5
5
5
5
5
5
5
5
5
5
5
5
5
5
5
5
5
5
5
5
5
5
5
5
5
5
5
5
5
5
5
5
5
5
5
5
5
5
5
5
5
5
5
5
5
5
5
5
5
5
5
5
5
5
5
5
5
5
5
POINT_DATA 441
VECTORS displacement float
0.0 0.0 0
1.2601921710894087e-06 9.318092088783287e-07 0
2.271802271075235e-06 1.6659298432904827e-06 0
3.221483856662172e-06 2.4978500734876215e-06 0
4.126366837234106e-06 3.4810424066554338e-06 0
4.984980019176302e-06 4.6280528738507195e-06 0
5.793934273594216e-06 5.937450364758957e-06 0
6.550574934236839e-06 7.4021303130743415e-06 0
7.253166890086879e-06 9.012550835103043e-06 0
7.900659615900151e-06 1.0758104795860582e-05 0
8.49245296432652e-06 1.2627718409369242e-05 0
9.028241659678185e-06 1.4610110999658913e-05 0
9.507946288606951e-06 1.6693909026319493e-05 0
9.931735306313937e-06 1.88677187334671e-05 0
1.0300156802357782e-05 2.1120248694866947e-05 0
1.0614412610421965e-05 2.3440624571218575e-05 0
1.0876796634344144e-05 2.581918893749906e-05 0
1.1091212320307168e-05 2.8249447242401225e-05 0
1.1263249841589204e-05 3.073276093660182e-05 0
1.1397879357633654e-05 3.329021198897776e-05 0
1.1492056820499165e-05 3.6001834209292034e-05 0
0.0 0.0 0
9.35844389681638e-07 7.038703681312447e-07 0
1.9003683500992276e-06 1.4645829652521467e-06 0
2.7812575222001905e-06 2.307731083246403e-06 0
3.607813687833493e-06 3.3005995497179055e-06 0
4.386045544311876e-06 4.457602794849751e-06 0
5.116502374576564e-06 5.777493511566657e-06 0
5.798487972578307e-06 7.253053038263541e-06 0
6.431224982730575e-06 8.874606604163066e-06 0
7.0141279050639605e-06 1.0631447284601932e-05 0
7.546819741444767e-06 1.2512434169912853e-05 0
8.029095156129187e-06 1.450624069244629e-05 0
8.460896423606227e-06 1.66014557245012e-05 0
8.842325407416768e-06 1.8786643049981942e-05 0
9.173700371876571e-06 2.105045024736248e-05 0
9.4556519205106e-06 2.338191005896922e-05 0
9.689215615851579e-06 2.577122568095444e-05 0
9.875806924809045e-06 2.8211662383543063e-05 0
1.0016956653490093e-05 3.070386062617624e-05 0
1.0114600213886842e-05 3.3265260484546457e-05 0
1.0180387680633927e-05 3.59508164630048e-05 0
0.0 0.0 0
7.499276194550871e-07 5.539191523902891e-07 0
1.5793317696502668e-06 1.2809295733379912e-06 0
2.3752493506747153e-06 2.133938687423502e-06 0
3.1192808616605085e-06 3.136896414454202e-06 0
3.816443180239966e-06 4.303845041935036e-06 0
4.468649321251428e-06 5.6336966401465295e-06 0
5.076368921490243e-06 7.11929651309485e-06 0
5.639567180606521e-06 8.750969866689392e-06 0
6.158088239410629e-06 1.0517990657832273e-05 0
6.631786444184152e-06 1.2409199071502895e-05 0
7.060560326165123e-06 1.4413255431615208e-05 0
7.444355210764167e-06 1.6518741659780794e-05 0
7.783158910907892e-06 1.871421933354644e-05 0
8.076994945026163e-06 2.098833509586362e-05 0
8.325905521922347e-06 2.333010884783646e-05 0
8.52991666628923e-06 2.5729660663059867e-05 0
8.689049735146285e-06 2.8179856140592335e-05 0
8.803838975733411e-06 3.067965706858945e-05 0
8.878387866539166e-06 3.324000019757722e-05 0
8.933228023111151e-06 3.58908990269122e-05 0
0.0 0.0 0
6.163638080681326e-07 4.488930903652637e-07 0
1.3108673602576903e-06 1.1308228498744385e-06 0
2.003643930926053e-06 1.98029986328196e-06 0
2.659807586394677e-06 2.9909926894326203e-06 0
3.2742215020857072e-06 4.166973644271681e-06 0
3.847772403296217e-06 5.50600941126114e-06 0
4.381229384699013e-06 7.0007677432046994e-06 0
4.874988819759889e-06 8.641563405244417e-06 0
5.329220108819943e-06 1.0417685383085442e-05 0
5.743977556783834e-06 1.2317991225594637e-05 0
6.119253277785913e-06 1.4331161053480348e-05 0
6.454988804768266e-06 1.6445803589865985e-05 0
6.751056738638641e-06 1.8650518034804553e-05 0
7.007217281918784e-06 2.0933995262489096e-05 0
7.223061811797933e-06 2.328527166764738e-05 0
7.398004129317763e-06 2.5694324446503584e-05 0
7.531550996730932e-06 2.8153294776366216e-05 0
7.624584976374919e-06 3.065860476700155e-05 0
7.68363044128463e-06 3.321349981488218e-05 0
7.732287523373398e-06 3.5826719726177886e-05 0
0.0 0.0 0
5.067695685844264e-07 3.728691871805087e-07 0
1.0792101749978588e-06 1.0120780518995159e-06 0
1.664241659376177e-06 1.8501619422628437e-06 0
2.2274549426180423e-06 2.864119913253073e-06 0
2.757048148835496e-06 4.047422394278084e-06 0
3.2511327011236435e-06 5.394556734335572e-06 0
3.710042405370747e-06 6.897482839979745e-06 0
4.1342838739040796e-06 8.546372515962173e-06 0
4.524216256587736e-06 1.0330514125773863e-05 0
4.880039430791006e-06 1.2238799313745982e-05 0
5.201821083718331e-06 1.425995291228767e-05 0
5.4895027614034095e-06 1.6382638485628927e-05 0
5.742872681673891e-06 1.8595522672494553e-05 0
5.961510634110436e-06 2.0887364491345297e-05 0
6.1447402353462384e-06 2.324720822541916e-05 0
6.2917051178231535e-06 2.566478603451661e-05 0
6.401886086092699e-06 2.8131227390132808e-05 0
6.476804126112216e-06 3.063994644687146e-05 0
6.524364532903129e-06 3.318655931418858e-05 0
6.567659756313848e-06 3.576298461554391e-05 0
0.0 0.0 0
4.100343523302998e-07 3.171004999001559e-07 0
8.721041181473877e-07 9.198193776759831e-07 0
1.3513262450363247e-06 1.74371512822366e-06 0
1.8192647832298548e-06 2.7572327323130792e-06 0
2.2621512243186583e-06 3.945678201311186e-06 0
2.6758042231179024e-06 5.299560844710358e-06 0
3.059705561170701e-06 6.8095352058770275e-06 0
3.414220171639891e-06 8.465432421952974e-06 0
3.7397652937903105e-06 1.0256486748264908e-05 0
4.036624216211082e-06 1.2171620573043254e-05 0
4.304919020254034e-06 1.4199616297647704e-05 0
4.544601427398868e-06 1.6329209856706874e-05 0
4.755421489792877e-06 1.854915193202082e-05 0
4.936876520752183e-06 2.084827617977805e-05 0
5.088190173113695e-06 2.321561095924661e-05 0
5.2084657683128166e-06 2.564055762294031e-05 0
5.297342750718024e-06 2.8113075969030766e-05 0
5.3567862046964276e-06 3.06234975791442e-05 0
5.394932093424673e-06 3.3160581380723e-05 0
5.432397024862033e-06 3.570352656912923e-05 0
0.0 0.0 0
3.2099129188602964e-07 2.7634205021446834e-07 0
6.814915922768502e-07 8.496725870933743e-07 0
1.0587872622642174e-06 1.6596553695157494e-06 0
1.4313189066753016e-06 2.670555847086e-06 0
1.786331290856643e-06 3.862123766397719e-06 0
2.118653539924871e-06 5.221267055341462e-06 0
2.427017982924208e-06 6.73706096651114e-06 0
2.711520807097757e-06 8.398812520155958e-06 0
2.9725368668297256e-06 1.0195633649665365e-05 0
3.2103752885045e-06 1.2116459380226035e-05 0
3.425191316240666e-06 1.4150130174755857e-05 0
3.6169586846985306e-06 1.6285459988288156e-05 0
3.7854375523121897e-06 1.8511287614448625e-05 0
3.930133603922154e-06 2.0816517410725605e-05 0
4.050300526993531e-06 2.319014177687945e-05 0
4.145130048066718e-06 2.5621194009426e-05 0
4.214424775643962e-06 2.8098455752008897e-05 0
4.2602361670286194e-06 3.060940673496464e-05 0
4.289986833344687e-06 3.313705596052214e-05 0
4.32078765383133e-06 3.5651304067836375e-05 0
0.0 0.0 0
2.3682091809621494e-07 2.4728960086318096e-07 0
5.020152823928907e-07 7.982696768739393e-07 0
7.812537895553668e-07 1.596309337179546e-06 0
1.0593479451273109e-06 2.6037836025806843e-06 0
1.3260342583526391e-06 3.7969357487227115e-06 0
1.576348479940148e-06 5.159886134978385e-06 0
1.8086713573475411e-06 6.68020733196665e-06 0
2.0228526325846732e-06 8.346600077692844e-06 0
2.2191708759965908e-06 1.0147998435805117e-05 0
2.3979163651292034e-06 1.2073326158644466e-05 0
2.5592582291041006e-06 1.4111472391975962e-05 0
2.7032020616408422e-06 1.625132387156963e-05 0
2.8295598333690707e-06 1.8481801353010626e-05 0
2.9379190973612866e-06 2.0791871591186148e-05 0
3.027654654558556e-06 2.317048573234362e-05 0
3.098106186509298e-06 2.5606330703106062e-05 0
3.149161463909472e-06 2.8087136613828557e-05 0
3.182593372460336e-06 3.059797340961818e-05 0
3.2044146988640138e-06 3.3117326688470155e-05 0
3.227712759426324e-06 3.560854215500799e-05 0
0.0 0.0 0
1.5574777049751273e-07 2.2783423450727647e-07 0
3.298926537508279e-07 7.631883732828974e-07 0
5.14212266170507e-07 1.552150804457497e-06 0
6.991397446898617e-07 2.556383165283764e-06 0
8.775102740909609e-07 3.7501120851033008e-06 0
1.045390887877688e-06 5.115562295633894e-06 0
1.2012538147687006e-06 6.639108328486766e-06 0
1.344822102140808e-06 8.308885498636222e-06 0
1.47627161445839e-06 1.0113630678711673e-05 0
1.5958454161261226e-06 1.2042236262067291e-05 0
1.7037101884217002e-06 1.4083624819345364e-05 0
1.7999089093788149e-06 1.6226742029824118e-05 0
1.8843358764403682e-06 1.8460576777062603e-05 0
1.956713694880365e-06 2.0774149051564966e-05 0
2.0165981109601623e-06 2.3156381373808906e-05 0
2.06349923533677e-06 2.559569127877434e-05 0
2.097294386741398e-06 2.8078992151035907e-05 0
2.1191752092714835e-06 3.0589523519768695e-05 0
2.1332621865008614e-06 3.310248639058577e-05 0
2.1483664565628677e-06 3.557685898061901e-05 0
0.0 0.0 0
7.64997193053302e-08 2.166773228637905e-07 0
1.6223844206046578e-07 7.428107158867609e-07 0
2.538237998724469e-07 1.526004996340867e-06 0
3.4669094348358987e-07 2.527818682419716e-06 0
4.369481815158889e-07 3.721554196809797e-06 0
5.221677210173627e-07 5.088374488824434e-06 0
6.01264144584091e-07 6.613870378732975e-06 0
6.73978026687817e-07 8.285750612513523e-06 0
7.404070424700204e-07 1.0092579325256645e-05 0
8.00733553544911e-07 1.2023208578279146e-05 0
8.551084321178092e-07 1.4066577377886984e-05 0
9.036120489095699e-07 1.6211670681287394e-05 0
9.462383508776437e-07 1.8447526086226135e-05 0
9.828782064540947e-07 2.0763207612815632e-05 0
1.0133058841070754e-06 2.3147636799549595e-05 0
1.0372123245702866e-06 2.5589082225020546e-05 0
1.0543914213941294e-06 2.8073954460590225e-05 0
1.0652422461881846e-06 3.058432834929501e-05 0
1.0716812801002645e-06 3.3093331710421016e-05 0
1.0781165524202651e-06 3.5557355928983435e-05 0
0.0 0.0 0
-1.9504920904269513e-09 2.1312674104764043e-07 0
-3.3415932398622577e-09 7.362058972100886e-07 0
-3.3023267311540954e-09 1.517116952113207e-06 0
-1.7921685404422214e-09 2.5176845452825886e-06 0
5.467370048270037e-10 3.711147499538886e-06 0
2.9989870987694192e-09 5.07835693802372e-06 0
5.132812144213021e-09 6.60456801605009e-06 0
6.820172426326447e-09 8.277260610431602e-06 0
8.112851263525928e-09 1.0084887118487365e-05 0
9.128421321851375e-09 1.201626373618144e-05 0
9.990858387030355e-09 1.4060330383052145e-05 0
1.0812066292604212e-08 1.6206088518499405e-05 0
1.1689191617752195e-08 1.8442601066706014e-05 0
1.2695504255843215e-08 2.0758965574459005e-05 0
1.384543851538097e-08 2.3144138100233866e-05 0
1.5025222226568937e-08 2.5586385543262265e-05 0
1.5918995749479806e-08 2.8071980845945113e-05 0
1.6026389387139786e-08 3.058255408865929e-05 0
1.4886536974251225e-08 3.309034406699648e-05 0
1.2426003891576366e-08 3.555067520023956e-05 0
0.0 0.0 0
-8.05317247685397e-08 2.1699769059809754e-07 0
-1.6901415622114073e-07 7.430539153110766e-07 0
-2.603137112590273e-07 1.5251647366428377e-06 0
-3.4996071811237724e-07 2.5257727196872383e-06 0
-4.354679162154058e-07 3.71881822063327e-06 0
-5.158294701715124e-07 5.085522670818419e-06 0
-5.907553996694664e-07 6.611245954805195e-06 0
-6.601877354608394e-07 8.28345941873562e-06 0
-7.240994384329853e-07 1.0090586206014386e-05 0
-7.824388233442661e-07 1.2021421938270273e-05 0
-8.351185043777926e-07 1.4064894986568701e-05 0
-8.820064011629463e-07 1.6209999858031012e-05 0
-9.229122450450799e-07 1.844579886554511e-05 0
-9.575853223942136e-07 2.076140901163683e-05 0
-9.85763715397944e-07 2.3145854485101067e-05 0
-1.0073406266191178e-06 2.5587554733170868e-05 0
-1.0227082215405716e-06 2.8073034426963017e-05 0
-1.0332589763274314e-06 3.0584233201036034e-05 0
-1.0418809807031157e-06 3.309368118409624e-05 0
-1.053197748359172e-06 3.5557031092348e-05 0
0.0 0.0 0
-1.6017910306758767e-07 2.285850042617847e-07 0
-3.369153545221177e-07 7.63607101775489e-07 0
-5.202943607395274e-07 1.5502506440876363e-06 0
-7.014148990562788e-07 2.552096117169247e-06 0
-8.748571885091e-07 3.744562506184957e-06 0
-1.0380481794734544e-06 5.109879898392218e-06 0
-1.190040209204979e-06 6.633922699687924e-06 0
-1.3306021767451208e-06 8.304367482823663e-06 0
-1.4597313453736572e-06 1.0109694968041983e-05 0
-1.5774441036696498e-06 1.2038700563380313e-05 0
-1.6836981250693368e-06 1.4080291768742903e-05 0
-1.7783568335041538e-06 1.622343415351253e-05 0
-1.86115978043575e-06 1.84571626947644e-05 0
-1.931704114137718e-06 2.077059426636698e-05 0
-1.989491426396237e-06 2.3152842287558447e-05 0
-2.0341618587014973e-06 2.5592617204779244e-05 0
-2.0660869144981873e-06 2.8077079663889095e-05 0
-2.0874172060387273e-06 3.05892528317325e-05 0
-2.1033876481751644e-06 3.310317161525297e-05 0
-2.1232415926642025e-06 3.557621882704576e-05 0
0.0 0.0 0
-2.419342884850641e-07 2.486957525191332e-07 0