# vtk DataFile Version 3.0
Finite Element Results
ASCII
DATASET UNSTRUCTURED_GRID
POINTS 231 float
0.0 0.0 0
5.0 0.0 0
10.0 0.0 0
15.0 0.0 0
20.0 0.0 0
25.0 0.0 0
30.0 0.0 0
35.0 0.0 0
40.0 0.0 0
45.0 0.0 0
50.0 0.0 0
55.0 0.0 0
60.0 0.0 0
65.0 0.0 0
70.0 0.0 0
75.0 0.0 0
80.0 0.0 0
85.0 0.0 0
90.0 0.0 0
95.0 0.0 0
100.0 0.0 0
0.0 5.0 0
5.0 5.0 0
10.0 5.0 0
15.0 5.0 0
20.0 5.0 0
25.0 5.0 0
30.0 5.0 0
35.0 5.0 0
40.0 5.0 0
45.0 5.0 0
50.0 5.0 0
55.0 5.0 0
60.0 5.0 0
65.0 5.0 0
70.0 5.0 0
75.0 5.0 0
80.0 5.0 0
85.0 5.0 0
90.0 5.0 0
95.0 5.0 0
100.0 5.0 0
0.0 10.0 0
5.0 10.0 0
10.0 10.0 0
15.0 10.0 0
20.0 10.0 0
25.0 10.0 0
30.0 10.0 0
35.0 10.0 0
40.0 10.0 0
45.0 10.0 0
50.0 10.0 0
55.0 10.0 0
60.0 10.0 0
65.0 10.0 0
70.0 10.0 0
75.0 10.0 0
80.0 10.0 0
85.0 10.0 0
90.0 10.0 0
95.0 10.0 0
100.0 10.0 0
0.0 15.0 0
5.0 15.0 0
10.0 15.0 0
15.0 15.0 0
20.0 15.0 0
25.0 15.0 0
30.0 15.0 0
35.0 15.0 0
40.0 15.0 0
45.0 15.0 0
50.0 15.0 0
55.0 15.0 0
60.0 15.0 0
65.0 15.0 0
70.0 15.0 0
75.0 15.0 0
80.0 15.0 0
85.0 15.0 0
90.0 15.0 0
95.0 15.0 0
100.0 15.0 0
0.0 20.0 0
5.0 20.0 0
10.0 20.0 0
15.0 20.0 0
20.0 20.0 0
25.0 20.0 0
30.0 20.0 0
35.0 20.0 0
40.0 20.0 0
45.0 20.0 0
50.0 20.0 0
55.0 20.0 0
60.0 20.0 0
65.0 20.0 0
70.0 20.0 0
75.0 20.0 0
80.0 20.0 0
85.0 20.0 0
90.0 20.0 0
95.0 20.0 0
100.0 20.0 0
0.0 25.0 0
5.0 25.0 0
10.0 25.0 0
15.0 25.0 0
20.0 25.0 0
25.0 25.0 0
30.0 25.0 0
35.0 25.0 0
40.0 25.0 0
45.0 25.0 0
50.0 25.0 0
55.0 25.0 0
60.0 25.0 0
65.0 25.0 0
70.0 25.0 0
75.0 25.0 0
80.0 25.0 0
85.0 25.0 0
90.0 25.0 0
95.0 25.0 0
100.0 25.0 0
0.0 30.0 0
5.0 30.0 0
10.0 30.0 0
15.0 30.0 0
20.0 30.0 0
25.0 30.0 0
30.0 30.0 0
35.0 30.0 0
40.0 30.0 0
45.0 30.0 0
50.0 30.0 0
55.0 30.0 0
60.0 30.0 0
65.0 30.0 0
70.0 30.0 0
75.0 30.0 0
80.0 30.0 0
85.0 30.0 0
90.0 30.0 0
95.0 30.0 0
100.0 30.0 0
0.0 35.0 0
5.0 35.0 0
10.0 35.0 0
15.0 35.0 0
20.0 35.0 0
25.0 35.0 0
30.0 35.0 0
35.0 35.0 0
40.0 35.0 0
45.0 35.0 0
50.0 35.0 0
55.0 35.0 0
60.0 35.0 0
65.0 35.0 0
70.0 35.0 0
75.0 35.0 0
80.0 35.0 0
85.0 35.0 0
90.0 35.0 0
95.0 35.0 0
100.0 35.0 0
0.0 40.0 0
5.0 40.0 0
10.0 40.0 0
15.0 40.0 0
20.0 40.0 0
25.0 40.0 0
30.0 40.0 0
35.0 40.0 0
40.0 40.0 0
45.0 40.0 0
50.0 40.0 0
55.0 40.0 0
60.0 40.0 0
65.0 40.0 0
70.0 40.0 0
75.0 40.0 0
80.0 40.0 0
85.0 40.0 0
90.0 40.0 0
95.0 40.0 0
100.0 40.0 0
0.0 45.0 0
5.0 45.0 0
10.0 45.0 0
15.0 45.0 0
20.0 45.0 0
25.0 45.0 0
30.0 45.0 0
35.0 45.0 0
40.0 45.0 0
45.0 45.0 0
50.0 45.0 0
55.0 45.0 0
60.0 45.0 0
65.0 45.0 0
70.0 45.0 0
75.0 45.0 0
80.0 45.0 0
85.0 45.0 0
90.0 45.0 0
95.0 45.0 0
100.0 45.0 0
0.0 50.0 0
5.0 50.0 0
10.0 50.0 0
15.0 50.0 0
20.0 50.0 0
25.0 50.0 0
30.0 50.0 0
35.0 50.0 0
40.0 50.0 0
45.0 50.0 0
50.0 50.0 0
55.0 50.0 0
60.0 50.0 0
65.0 50.0 0
70.0 50.0 0
75.0 50.0 0
80.0 50.0 0
85.0 50.0 0
90.0 50.0 0
95.0 50.0 0
100.0 50.0 0
CELLS 400 1600
3 0 1 22
3 0 22 21
3 1 2 23
3 1 23 22
3 2 3 24
3 2 24 23
3 3 4 25
3 3 25 24
3 4 5 26
3 4 26 25
3 5 6 27
3 5 27 26
3 6 7 28
3 6 28 27
3 7 8 29
3 7 29 28
3 8 9 30
3 8 30 29
3 9 10 31
3 9 31 30
3 10 11 32
3 10 32 31
3 11 12 33
3 11 33 32
3 12 13 34
3 12 34 33
3 13 14 35
3 13 35 34
3 14 15 36
3 14 36 35
3 15 16 37
3 15 37 36
3 16 17 38
3 16 38 37
3 17 18 39
3 17 39 38
3 18 19 40
3 18 40 39
3 19 20 41
3 19 41 40
3 21 22 43
3 21 43 42
3 22 23 44
3 22 44 43
3 23 24 45
3 23 45 44
3 24 25 46
3 24 46 45
3 25 26 47
3 25 47 46
3 26 27 48
3 26 48 47
3 27 28 49
3 27 49 48
3 28 29 50
3 28 50 49
3 29 30 51
3 29 51 50
3 30 31 52
3 30 52 51
3 31 32 53
3 31 53 52
3 32 33 54
3 32 54 53
3 33 34 55
3 33 55 54
3 34 35 56
3 34 56 55
3 35 36 57
3 35 57 56
3 36 37 58
3 36 58 57
3 37 38 59
3 37 59 58
3 38 39 60
3 38 60 59
3 39 40 61
3 39 61 60
3 40 41 62
3 40 62 61
3 42 43 64
3 42 64 63
3 43 44 65
3 43 65 64
3 44 45 66
3 44 66 65
3 45 46 67
3 45 67 66
3 46 47 68
3 46 68 67
3 47 48 69
3 47 69 68
3 48 49 70
3 48 70 69
3 49 50 71
3 49 71 70
3 50 51 72
3 50 72 71
3 51 52 73
3 51 73 72
3 52 53 74
3 52 74 73
3 53 54 75
3 53 75 74
3 54 55 76
3 54 76 75
3 55 56 77
3 55 77 76
3 56 57 78
3 56 78 77
3 57 58 79
3 57 79 78
3 58 59 80
3 58 80 79
3 59 60 81
3 59 81 80
3 60 61 82
3 60 82 81
3 61 62 83
3 61 83 82
3 63 64 85
3 63 85 84
3 64 65 86
3 64 86 85
3 65 66 87
3 65 87 86
3 66 67 88
3 66 88 87
3 67 68 89
3 67 89 88
3 68 69 90
3 68 90 89
3 69 70 91
3 69 91 90
3 70 71 92
3 70 92 91
3 71 72 93
3 71 93 92
3 72 73 94
3 72 94 93
3 73 74 95
3 73 95 94
3 74 75 96
3 74 96 95
3 75 76 97
3 75 97 96
3 76 77 98
3 76 98 97
3 77 78 99
3 77 99 98
3 78 79 100
3 78 100 99
3 79 80 101
3 79 101 100
3 80 81 102
3 80 102 101
3 81 82 103
3 81 103 102
3 82 83 104
3 82 104 103
3 84 85 106
3 84 106 105
3 85 86 107
3 85 107 106
3 86 87 108
3 86 108 107
3 87 88 109
3 87 109 108
3 88 89 110
3 88 110 109
3 89 90 111
3 89 111 110
3 90 91 112
3 90 112 111
3 91 92 113
3 91 113 112
3 92 93 114
3 92 114 113
3 93 94 115
3 93 115 114
3 94 95 116
3 94 116 115
3 95 96 117
3 95 117 116
3 96 97 118
3 96 118 117
3 97 98 119
3 97 119 118
3 98 99 120
3 98 120 119
3 99 100 121
3 99 121 120
3 100 101 122
3 100 122 121
3 101 102 123
3 101 123 122
3 102 103 124
3 102 124 123
3 103 104 125
3 103 125 124
3 105 106 127
3 105 127 126
3 106 107 128
3 106 128 127
3 107 108 129
3 107 129 128
3 108 109 130
3 108 130 129
3 109 110 131
3 109 131 130
3 110 111 132
3 110 132 131
3 111 112 133
3 111 133 132
3 112 113 134
3 112 134 133
3 113 114 135
3 113 135 134
3 114 115 136
3 114 136 135
3 115 116 137
3 115 137 136
3 116 117 138
3 116 138 137
3 117 118 139
3 117 139 138
3 118 119 140
3 118 140 139
3 119 120 141
3 119 141 140
3 120 121 142
3 120 142 141
3 121 122 143
3 121 143 142
3 122 123 144
3 122 144 143
3 123 124 145
3 123 145 144
3 124 125 146
3 124 146 145
3 126 127 148
3 126 148 147
3 127 128 149
3 127 149 148
3 128 129 150
3 128 150 149
3 129 130 151
3 129 151 150
3 130 131 152
3 130 152 151
3 131 132 153
3 131 153 152
3 132 133 154
3 132 154 153
3 133 134 155
3 133 155 154
3 134 135 156
3 134 156 155
3 135 136 157
3 135 157 156
3 136 137 158
3 136 158 157
3 137 138 159
3 137 159 158
3 138 139 160
3 138 160 159
3 139 140 161
3 139 161 160
3 140 141 162
3 140 162 161
3 141 142 163
3 141 163 162
3 142 143 164
3 142 164 163
3 143 144 165
3 143 165 164
3 144 145 166
3 144 166 165
3 145 146 167
3 145 167 166
3 147 148 169
3 147 169 168
3 148 149 170
3 148 170 169
3 149 150 171
3 149 171 170
3 150 151 172
3 150 172 171
3 151 152 173
3 151 173 172
3 152 153 174
3 152 174 173
3 153 154 175
3 153 175 174
3 154 155 176
3 154 176 175
3 155 156 177
3 155 177 176
3 156 157 178
3 156 178 177
3 157 158 179
3 157 179 178
3 158 159 180
3 158 180 179
3 159 160 181
3 159 181 180
3 160 161 182
3 160 182 181
3 161 162 183
3 161 183 182
3 162 163 184
3 162 184 183
3 163 164 185
3 163 185 184
3 164 165 186
3 164 186 185
3 165 166 187
3 165 187 186
3 166 167 188
3 166 188 187
3 168 169 190
3 168 190 189
3 169 170 191
3 169 191 190
3 170 171 192
3 170 192 191
3 171 172 193
3 171 193 192
3 172 173 194
3 172 194 193
3 173 174 195
3 173 195 194
3 174 175 196
3 174 196 195
3 175 176 197
3 175 197 196
3 176 177 198
3 176 198 197
3 177 178 199
3 177 199 198
3 178 179 200
3 178 200 199
3 179 180 201
3 179 201 200
3 180 181 202
3 180 202 201
3 181 182 203
3 181 203 202
3 182 183 204
3 182 204 203
3 183 184 205
3 183 205 204
3 184 185 206
3 184 206 205
3 185 186 207
3 185 207 206
3 186 187 208
3 186 208 207
3 187 188 209
3 187 209 208
3 189 190 211
3 189 211 210
3 190 191 212
3 190 212 211
3 191 192 213
3 191 213 212
3 192 193 214
3 192 214 213
3 193 194 215
3 193 215 214
3 194 195 216
3 194 216 215
3 195 196 217
3 195 217 216
3 196 197 218
3 196 218 217
3 197 198 219
3 197 219 218
3 198 199 220
3 198 220 219
3 199 200 221
3 199 221 220
3 200 201 222
3 200 222 221
3 201 202 223
3 201 223 222
3 202 203 224
3 202 224 223
3 203 204 225
3 203 225 224
3 204 205 226
3 204 226 225
3 205 206 227
3 205 227 226
3 206 207 228
3 206 228 227
3 207 208 229
3 207 229 228
3 208 209 230
3 208 230 229
CELL_TYPES 400
5
5
5
5
5
5
5
5
5
5
5
5
5
5
5
5
5
5
5
5
5
5
5
5
5
5
5
5
5
5
5
5
5
5
5
5
5
5
5
5
5
5
5
5
5
5
5
5
5
5
5
5
5
5
5
5
5
5
5
5
5
5
5
5
5
5
5
5
5
5
5
5
5
5
5
5
5
5
5
5
5
5
5
5
5
5
5
5
5
5
5
5
5
5
5
5
5
5
5
5
5
5
5
5
5
5
5
5
5
5
5
5
5
5
5
5
5
5
5
5
5
5
5
5
5
5
5
5
5
5
5
5
5
5
5
5
5
5
5
5
5
5
5
5
5
5
5
5
5
5
5
5
5
5
5
5
5
5
5
5
5
5
5
5
5
5
5
5
5
5
5
5
5
5
5
5
5
5
5
5
5
5
5
5
5
5
5
5
5
5
5
5
5
5
5
5
5
5
5
5
5
5
5
5
5
5
5
5
5
5
5
5
5
5
5
5
5
5
5
5
5
5
5
5
5
5
5
5
5
5
5
5
5
5
5
5
5
5
5
5
5
5
5
5
5
5
5
5
5
5
5
5
5
5
5
5
5
5
5
5
5
5
5
5
5
5
5
5
5
5
5
5
5
5
5
5
5
5
5
5
5
5
5
5
5
5
5
5
5
5
5
5
5
5
5
5
5
5
5
5
5
5
5
5
5
5
5
5
5
5
5
5
5
5
5
5
5
5
5
5
5
5
5
5
5
5
5
5
5
5
5
5
5
5
5
5
5
5
5
5
5
5
5
5
5
5
5
5
5
5
5
5
5
5
5
5
5
5
5
5
5
5
5
5
5
5
5
5
5
5
5
5
5
5
5
5
5
5
5
5
5
5
5
5
5
5
5
5
5
5
5
5
5
5
5
5
5
5
5
5
POINT_DATA 231
VECTORS displacement float
0.0 0.0 0
0.05738258974749983 0.04327121198364802 0
0.1054847530095834 0.07743207898576769 0
0.1502010222480279 0.11640912351391142 0
0.1925253358579541 0.16252205762072797 0
0.23257920473400348 0.2162720066560352 0
0.2702933757100904 0.27757666639638867 0
0.30557647477800426 0.3461102965536667 0
0.33835540282678195 0.42143652016551053 0
0.3685797734380364 0.5030672471820606 0
0.3962176061075107 0.5904898922762651 0
0.4212506549236164 0.6831799726557142 0
0.4436719959335786 0.7806071200177085 0
0.4634870042875531 0.8822392777099821 0
0.48071873210616095 0.9875497016991862 0
0.49541863814351417 1.096034034233674 0
0.5076824279686369 1.2072515290383914 0
0.5176666669701643 1.3209201370387849 0
0.5255933626773261 1.4371367382841083 0
0.531738684113984 1.5569570896947014 0
0.5369253246110741 1.6849247548556603 0
0.0 0.0 0
0.03449695348296384 0.025127732920628434 0
0.07375414880856959 0.05961688038744192 0
0.110735451664536 0.09946350626780034 0
0.14542880012963053 0.14646165888825827 0
0.17797008689590738 0.20112232589943718 0
0.2084206782894573 0.263368037648188 0
0.23679801652713592 0.3328680385648733 0
0.26310104928816447 0.40917895847650704 0
0.28732285590012474 0.4918068036740881 0
0.30945589351141706 0.5802348254051086 0
0.3294936879722649 0.6739359242733185 0
0.34743097481499374 0.7723781888384855 0
0.36326325790345904 0.8750283532641903 0
0.37698631770084784 0.9813573826402401 0
0.38859627607672886 1.0908543445780061 0
0.39809182849968394 1.2030596123211301 0
0.4054842972894423 1.3176376827266476 0
0.41083624432309634 1.4345267104677069 0
0.4144050827554967 1.5542319541397323 0
0.4171641620696406 1.6782935023750776 0
0.0 0.0 0
0.02339323371043978 0.016956147340617175 0
0.050125634524494325 0.046834567105126436 0
0.07757384990142925 0.08624374717266187 0
0.10384855087840356 0.133735427195525 0
0.12855513879768568 0.1891236343926701 0
0.15162752752814573 0.25215725792617394 0
0.17307106413096718 0.3224577000191944 0
0.19290178270382746 0.39956912444927434 0
0.21113234947643209 0.4829956643635415 0
0.22776980925538204 0.5722220221056026 0
0.2428156594084588 0.6667239546696065 0
0.2562655175579018 0.7659735056340525 0
0.2681077209230884 0.8694421484121487 0
0.278321290166158 0.9766044665261807 0
0.28687534432936945 1.0869456367674002 0
0.2937355640521895 1.1999775079339106 0
0.29889067870828373 1.315269012958356 0
0.3024271703968231 1.4324910805020983 0
0.304709619966518 1.5514382089465015 0
0.3067524072615216 1.671771722694054 0
0.0 0.0 0
0.014818146720639813 0.012626435668840617 0
0.03155920418848689 0.039303869329956824 0
0.04920308728533846 0.07726983437834326 0
0.06665651510413596 0.12465213728398668 0
0.0832643056932513 0.18042697365894633 0
0.09880939370595525 0.24400953610989032 0
0.1132411422125625 0.31490285459351197 0
0.12656152935024292 0.3926121219483277 0
0.13878443120525358 0.4766313918620476 0
0.1499220997275238 0.5664457059054082 0
0.15998096348840568 0.6615351333163347 0
0.16895992546332314 0.7613779873329873 0
0.17684870200268837 0.8654529116293251 0
0.18362599052846132 0.9732397403681202 0
0.18925962323430975 1.0842185107227804 0
0.1937148705271487 1.1978647713321289 0
0.19698350579546606 1.313635540930555 0
0.19915448471683106 1.4309271927144804 0
0.2005516117918092 1.5489435201443642 0
0.2019344831615086 1.6662762714870596 0
0.0 0.0 0
0.007149783019161863 0.01045490336709326 0
0.015182228160055981 0.03535252151823529 0
0.02376445368324658 0.07224000074489825 0
0.03244572988193855 0.11925309535416405 0
0.04084488546879585 0.1751200995800749 0
0.048751206081697834 0.23899447842266078 0
0.05609021629555929 0.31024826192374344 0
0.06284895746583624 0.3883332796969106 0
0.0690353808418806 0.47272553346442703 0
0.0746611690568528 0.5629066909473441 0
0.07973534881275003 0.6583594078950072 0
0.08426195608549102 0.7585672437079396 0
0.08823868266609423 0.8630153035700517 0
0.09165540404488258 0.9711888359538836 0
0.0944931645095624 1.0825655805533774 0
0.09672720536413235 1.1965943299924626 0
0.098342903715182 1.312646821273438 0
0.0993784862561042 1.429919410075107 0
0.10000443998283406 1.5472356093713446 0
0.10061667732559897 1.66265042946812 0
0.0 0.0 0
-0.0001960284237375041 0.009819526789841049 0
-0.0003506263498809255 0.034159182238594675 0
-0.0003740975733185187 0.07061179626895817 0
-0.00025621023510157546 0.11738597140362524 0
-5.7388661127614636e-05 0.1732050489292807 0
0.00015457987456646069 0.2371534852202327 0
0.00034147805941347494 0.30853467738341145 0
0.0004931796081647046 0.38676223914985075 0
0.0006136557705931095 0.47129580363777024 0
0.0007116886569673006 0.5616119026639039 0
0.0007967250017130352 0.6571931274055532 0
0.000877543847355535 0.7575252922353676 0
0.0009619067548535514 0.8620971992906715 0
0.0010557792449205502 0.9703990251103504 0
0.0011605760897236308 1.0819133968095798 0
0.001266907908913433 1.1960875004955007 0
0.0013468305109576887 1.3122669778499871 0
0.0013545550135964418 1.4295665563642774 0
0.001247364436807837 1.5466471358832972 0
0.0010176150019726607 1.6613684233789225 0
0.0 0.0 0
-0.00759050442867665 0.010576268658134245 0
-0.015913324465347115 0.03547422692012152 0
-0.024463591025749055 0.07214152373325537 0
-0.03283945791338437 0.11891551380937541 0
-0.04082382298119443 0.17465194097185816 0
-0.04832842897297004 0.2385028206163954 0
-0.0553262788207883 0.3097892584419802 0
-0.061810392514946716 0.38792317707815 0
-0.06777717841590977 0.4723598641181436 0
-0.07322178979141179 0.5625727809528186 0
-0.07813690668543517 0.658042652980621 0
-0.08251188513175 0.7582541253976868 0
-0.08633164577261049 0.8626957935469535 0
-0.0895760108626833 0.9708605667352637 0
-0.09222208782295029 1.0822417891612992 0
-0.09425607852169082 1.1963140283341693 0
-0.09570602196578343 1.3124722485618943 0
-0.09669678574521927 1.4298924192390927 0
-0.09750117685239276 1.547289699021807 0
-0.0985570900680559 1.6625829438214463 0
0.0 0.0 0
-0.015409397015241823 0.012949284008060268 0
-0.032320657378695564 0.03948051658002538 0
-0.049653654919623764 0.07690206702969378 0
-0.06663435790796073 0.12385350904823886 0
-0.08283857398451244 0.17946323461148914 0
-0.09807186162809575 0.2430520883072261 0
-0.11226136911405937 0.3140254995960598 0
-0.12538733547336844 0.3918295723160986 0
-0.13744776097748804 0.4759300749053814 0
-0.14844326585914 0.5658015721679254 0
-0.1583714003315584 0.6609224323194592 0
-0.1672241479526376 0.7607735512377297 0
-0.17498584852649898 0.8648395604366625 0
-0.18163096775268178 0.9726119761914527 0
-0.18712349548106463 1.0835935685954112 0
-0.19142479704975596 1.1973001009144562 0
-0.1945298036796742 1.313241429217554 0
-0.19657907311794398 1.430813887396768 0
-0.19803420931065246 1.5490334787689009 0
-0.19979293959537764 1.6661418680037408 0
0.0 0.0 0
-0.024202990050582962 0.01762063789222226 0
-0.050596263227730594 0.04676383124569821 0
-0.07722874065421755 0.08522758646951817 0
-0.10303255112079536 0.1323463624128684 0
-0.12751214780378992 0.18768710032532857 0
-0.1504640700882281 0.2508111056455424 0
-0.17181981573240349 0.3212429688863729 0
-0.19156605972133295 0.39848082637340587 0
-0.20970734039962666 0.4820090724756405 0
-0.22625055491246307 0.571306159639867 0
-0.24119945686569644 0.6658484371680541 0
-0.25455275661315446 0.7651123186186297 0
-0.26630267743073277 0.8685768088645398 0
-0.27643264033215503 0.9757285385179115 0
-0.2849140821288728 1.086072585823509 0
-0.2917050379909468 1.1991546386484062 0
-0.29676214844920235 1.3146012459990861 0
-0.30011490317787515 1.4321613621797213 0
-0.3022219100122174 1.5514879066678076 0
-0.3044305872271695 1.671547761769962 0
0.0 0.0 0
-0.035068246846140495 0.026029132928660957 0
-0.0723499647507784 0.05829109364341813 0
-0.10883992764614016 0.0975951312610763 0
-0.1435859369239691 0.14458030791660353 0
-0.17629503992948442 0.19937005666711147 0
-0.20688362977246622 0.26177300270602794 0
-0.23533506424999942 0.33142228506066695 0
-0.2616530033435578 0.40786050961115516 0
-0.28584587754762275 0.4905876292531536 0
-0.3079220253872468 0.5790855320122706 0
-0.32788870830591843 0.6728294660789979 0
-0.34575252183681243 0.7712931748168731 0
-0.36152014668115945 0.873952340303841 0
-0.375198782964833 0.9802901913264739 0
-0.3867953870822144 1.089810612933886 0
-0.39631294801022726 1.2020693952535038 0
-0.40374053592285636 1.3167478198927873 0
-0.4090347770826986 1.4338272642830452 0
-0.41214288882485395 1.5539852605295486 0
-0.4144063752306227 1.6778094306392366 0
0.0 0.0 0
-0.05114775102575416 0.040898791671518234 0
-0.10064173003465376 0.07512137057377674 0
-0.14672534435396073 0.11432017028844628 0
-0.18995975310358956 0.1606013668744092 0
-0.23057421760888422 0.21447770671848174 0
-0.26861298061243033 0.27589121517253684 0
-0.3040624724964711 0.3445253331939005 0
-0.3369022915304634 0.4199420548637048 0
-0.36711975792705565 0.5016484741914987 0
-0.3947112945638196 0.589128914447596 0
-0.41968103715307675 0.6818597380783058 0
-0.44204070012860586 0.7793161838169875 0
-0.4618121242195411 0.8809768881905704 0
-0.4790331600667371 0.9863304650345278 0
-0.49376718383808776 1.0948896237617685 0
-0.5061149120839152 1.2062230640646456 0
-0.516220437948045 1.3200280367931134 0
-0.5242390809310664 1.4363034626391762 0
-0.5301372281168796 1.5558484697217527 0
-0.5325567820162068 1.6829348826517896 0
CELL_DATA 400
VECTORS stress float
2671136084.9495387 347257044.6258643 313624241.83249277
1857528264.4672837 796083541.9145502 386580506.47120667
2178996515.68929 150769996.90746376 37388658.47855153
1695153308.3860114 -71021288.18707606 178515556.95811525
2016746407.1598322 119457592.25043023 -7515785.466894999
1580180955.3599038 -105865243.23370127 124861871.98991705
1908376915.9390328 111924228.4806984 -15132332.638569502
1477050673.2102187 -111840579.44226067 115885877.49178495
1807138768.173475 108568010.24586156 -13217981.581367087
1381598547.4348373 -113837929.4496709 116371250.50546701
1702871619.9077406 105247013.00658375 -8739041.23507101
1290039211.423502 -113046085.50412641 117486060.1639187
1594268611.607822 101180702.17067182 -3766586.0552355545
1200119087.8396032 -110218357.8797602 117343130.70849591
1482152394.418717 96414248.64083326 1105693.434251847
1110726579.6986122 -106051597.21898872 115884025.55023684
1367609721.1912582 91153902.13811927 5750915.055976575
1021384317.0516264 -101057784.516488 113438333.21482418
1251535600.560392 85600230.07944061 10168192.278628055
931922559.6548345 -95569167.09178008 110324679.89398336
1134609204.3504052 79929290.55036415 14355591.201499432
842302773.9420412 -89785267.04270504 106759788.80178747
1017404565.6312805 74319267.5025037 18248096.052454155
752529713.4762683 -83819062.68140435 102850732.52023831
900556039.5418899 68988876.47215897 21667866.27968681
662609139.089137 -77735915.30126658 98602204.72492169
784962596.5647464 64222692.640005015 24277070.52140104
572528040.3411245 -71594551.75674444 93927430.6454719
672002102.2651428 60322234.78757079 25568776.426193234
482251934.264069 -65510448.34600251 88685346.65312228
563621374.0313507 57291941.95799268 25029159.01175917
391767676.8744715 -59778233.23699769 82813933.48213251
461863923.64830464 53657975.53554358 22865204.918024
301319472.12711585 -55123158.8581035 76730322.1009915
366590665.3917562 42383787.74365889 22453582.939900722
212432817.6858943 -53241069.87691551 72410124.00518693
268014179.93613154 -4922958.267770253 38257693.10932133
131936812.13536572 -58182149.3662277 76125004.88916367
126251738.75294665 -237375737.48315108 126253886.4542373
85678065.64691631 -83067007.24885553 103506875.02858464
1668953212.62087 356075087.6062516 215754048.432375
1259635661.3313727 539843854.8563026 260863805.24026424
1818872518.7099524 217656869.23545262 167086664.34981877
1250861915.0642154 176893102.9391141 288841538.33823395
1686229559.2796104 141581499.24561426 102846524.88079517
1183004367.6276772 -54858052.65695113 242779473.5916947
1574421109.057399 115357104.20115846 83352359.52663009
1109720227.3338826 -105493928.73112598 220462742.45779076
1475330252.6433594 104869382.70354684 80703367.8916498
1036672464.282885 -115106600.70220397 212430122.24489442
1380936927.6062098 99048585.58885653 83885553.65291174
965466512.2532247 -113643648.89222609 209518083.61972556
1287771938.667029 94304960.71756722 88816131.08487043
895941669.6439071 -108806524.96641658 207804482.02628997
1194551748.0423217 89540462.2496669 94025435.80456449
827569341.330656 -102924723.85516477 205914954.3678653
1100917141.1698635 84518805.09273024 99035981.1367442
759880502.5118029 -96747214.4062695 203496512.76815623
1006868102.9271402 79303767.21026744 103722114.99977691
692529234.7769985 -90504583.36135447 200551558.74412844
912528095.4984558 74073816.58892725 108047235.45236534
625250316.715535 -84246712.59470451 197166897.04567578
818053525.2754079 69069831.51658107 111950881.66269349
557793063.3458834 -77955482.90503508 193408036.93292043
723595131.2548614 64564733.08542581 115301960.69744837
489856722.6385176 -71585941.04207827 189279777.2462178
629251309.5349524 60759743.0288517 117907720.63630618
421049001.11817443 -65097894.11601342 184719709.74863604
534950655.3796113 57453234.256930724 119631233.69856414
350920236.9254024 -58525002.375238195 179632964.7158414
440173490.7617426 53168665.83328421 120753896.85583997
279195497.13786536 -52156119.27524166 174014452.60232127
343394401.7187235 43051676.85564869 122837720.374753
206457611.0076997 -46995282.632730186 168234470.414627
241205687.2211754 13895625.705407036 130460827.91978432
135764865.49923715 -45932410.09556171 163514599.42436627
127697180.36238995 -68074623.50318506 153996628.9699506
75925054.54645346 -56938931.155197985 162123915.66353932
-1936798.8004853984 -287501690.9594781 209996821.95732793
45525196.041023545 -103291188.21233019 163662322.439594
1159719238.136529 306705534.06833416 128939390.01257241
797900208.0344515 341957232.0147649 194252856.4437018
1265651633.6374848 211402446.27674106 174030606.59233585
801525132.7661529 153193774.6238873 278497641.097173
1270890532.7352974 150209665.927496 169821806.94530207
776269910.4034783 1667422.0335954293 298454380.1904461
1205177208.4938862 117239027.30888242 158456065.36300838
732709664.2202055 -80439277.72182932 292485235.2238866
1129662563.33695 101870297.09061499 155344216.81093425
684651264.5322495 -105843520.10324742 285889240.0106468
1054335043.5720732 93716257.51842186 157161380.17405125
636351029.9058181 -109548931.52272768 281411220.71553254
980309384.174637 88051475.60528633 161084925.7633191
589069800.7492294 -105683132.262797 278079764.02201825
907261711.5937085 83024140.09195478 165710324.25377595
542909028.3593524 -99405819.74412031 275066852.8678615
834778076.1826959 78013790.82581878 170440332.97059488
497610042.1710363 -92540861.0891932 271984870.1559292
762563614.2466648 72908968.7345353 175056126.372351
452852785.7800756 -85668476.48958895 268713781.1104935
690419130.8594012 67813853.74097861 179495948.3684746
408331520.9660772 -78904785.52857563 265257198.2010507
618172708.7915759 62930356.4682472 183753213.38257518
363740536.65082264 -72191258.06269743 261663970.71691567
545597793.9064271 58476558.583032355 187840367.0414795
318729852.8643159 -65402296.07200564 257989726.18090948
472313894.05619437 54520189.40603874 191800284.25131312
272871610.2456902 -58406091.55728294 254273997.2060784
397669238.52785426 50556001.3638138 195776140.71014997
225701926.6673648 -51170653.76060744 250514934.10713136
320640986.57227063 44550022.73836716 200171963.7149156
176964253.2001022 -44031849.49094105 246623684.83521372
239887588.5327415 31007998.259046648 205912801.71735042
127247977.48366225 -38332695.442459546 242308862.66746646
154336757.36093736 -2597995.751588778 214605874.82692888
79203356.66270322 -37856672.542397335 236684290.32473475
65331389.08809929 -81657483.89135541 227524927.2260664
39140201.2460977 -51967948.372231364 226825257.69064206
-16821865.815069087 -248767665.8765348 238701379.19291607
16892562.93449062 -102416980.81433947 202688356.43056235
747787924.147974 225028569.61298418 76278030.26711796
384988316.416408 164994992.74988914 160844667.18605015
810256606.4597307 173567213.24223483 158468578.96438918
382403992.93089825 68435456.2342374 265065453.0717551
833982159.8278923 136329337.35722804 192728176.09683922
370934886.3628429 -14713523.942145633 315546203.04972386
815206684.1701125 112053768.82795455 202638733.59147704
351380249.9269907 -70500052.6003013 331914784.7257527
771799322.2091777 97501947.80958468 205467940.7769878
327668948.6041014 -96890974.9860506 333172600.0571299
721311100.2095311 88691232.51926868 208067305.0259473
303258631.18230486 -103301205.48764552 330076286.4327755
669680473.3611162 82408437.16493969 211421424.10182217
279445372.57955086 -100679793.60786545 326086090.41269517
618509101.6116294 76994351.17785926 215333776.46783102
256518539.86640787 -94660962.90422407 322062951.63329154
568021059.9400997 71751513.7052915 219541839.23610714
234372591.3696867 -87635581.7829738 318148952.04784214
518051036.7823011 66460775.848938994 223898205.7336864
212791863.93802893 -80489570.2955955 314340109.531448
468345154.32454365 61127025.641176544 228366349.77339825
191555487.823758 -73465887.99043886 310642865.7998798
418619253.45598996 55859081.14937067 232998225.21262243
170454420.34772652 -66540431.77745912 307111094.41964114
368527781.5210459 50792870.793704614 237921614.7652866
149268116.83906984 -59577120.25787786 303847545.91200024
317602357.2130811 45965651.36663132 243326803.92640594
127724811.3361395 -52408402.142688304 300977123.80365765
265204911.02100062 41002976.397881836 249420178.9217367
105473923.1542204 -44946534.65859023 298556278.70638293
210580054.0836431 34405019.23732339 256286083.78972542
82149965.18293107 -37449143.24700907 296342934.06673694
153186830.052851 22191293.885640517 263541038.74064463
57681264.910376176 -31123033.265507277 293305017.199367
93642342.54949902 -4165705.473230249 269471589.5876711
32945529.34695666 -29340692.131162908 286645949.5597683
35816593.89068429 -59723032.20155708 268756240.3216724
10448678.22299325 -39820133.0417347 269849243.62324554
-9210972.837869976 -163325230.94984984 246383777.02747202
-6446699.382340351 -77835872.17571743 228733050.58154184
370325780.0182801 130782407.82092392 47832183.44913682
-10555376.662788684 -4523732.855480864 151069642.92063153
404977678.05643827 121107388.19383101 144073286.7877712
-22987040.113542963 -37780229.37842885 261443753.93621936
424545886.41933787 110378809.52300891 196137353.38612103
-28802433.86911544 -64798374.05997756 321842454.1604091
424365857.99405676 99799699.55618641 220171607.57270262
-31226169.694628164 -84952071.66869107 348240367.3554149
408068747.3509114 90708555.42317407 230226616.86134455
-32381698.7215287 -95949253.32192153 355648267.82485145
383240497.56176627 83323149.39776556 235042348.2377615
-32779786.173262015 -98226530.37290049 354556340.9389005
355633214.431033 77091837.37892686 238539157.9221054
-32420710.102732472 -94817368.17273502 350531783.93919
327677435.0058395 71376459.08778594 241988306.3922409
-31375713.69028669 -88769131.8159263 345828054.31220746
300121339.63338524 65778164.16565726 245700441.48044503
-29767603.878311217 -81814271.86256734 341196717.38842994
273047328.1114212 60106512.77565432 249718108.969717
-27715071.348855816 -74723154.82672854 336836522.3822501
246310898.63783583 54296737.24240877 254062971.33270934
-25300849.51615673 -67756991.92187832 332796066.79636556
219695357.62669766 48355088.54014535 258821901.150721
-22562381.145110343 -60934668.3788504 329131400.2888834
192944409.4313987 42334229.1242216 264173599.24417698
-19502415.886385825 -54158242.96546085 325961458.72566897
165750900.93014342 36319140.24332545 270367808.9826126
-16132349.289779976 -47270096.04200575 323462306.28366303
137752092.4720457 30369193.749657232 277602402.763923
-12583497.053681785 -40109887.46402077 321765336.91180366
108598442.23926178 24263969.884430416 285668492.0594839
-9324834.592798803 -32663774.992419973 320638696.4012667
78233524.51534565 16832239.146097407 293175662.71924603
-7392540.589046381 -25446451.32769868 318756613.83488244
47619358.876669765 4898243.4381538015 296133193.21786684
-8349682.706776946 -20274849.663370818 312361620.1548603
20125043.253589343 -17241947.97032763 285524980.77248436
-13914578.230835438 -21473443.893632166 293179204.2540282
3381870.24432174 -54902543.046818405 243319350.35613695
-25951280.830683026 -36988944.00644337 245603260.76306322
6907897.22090045 36223906.20646051 37308473.61387543
-408719469.236435 -175165486.81561503 162711825.5097576
22022681.242896784 67242453.78659718 135030112.8198067
-430688574.2447205 -151317438.70737717 269284342.41612506
34037567.91406511 81828296.76744345 190201855.04512247
-430051783.6787158 -126503745.46552227 324686133.8102717
41644912.19053198 85080452.73001592 218321960.86745045
-415706814.00427383 -110919295.48327339 348992255.7490692
44095593.42730835 82497761.69203113 231579126.23982564
-394630217.36476886 -101894602.79368412 356202761.29538405
42552199.52574418 77548102.92478006 237929652.9756229
-370704352.4207456 -95273643.67142192 355145312.68416077
39015618.99719455 71867399.72709385 241745158.19964567
-345668790.35568947 -88832321.31011958 350821984.27766556